# vtk DataFile Version 3.0
structured grid
ASCII
DATASET STRUCTURED_GRID
DIMENSIONS 64 40 1
POINTS 2560 float
0.000000 -3.000000 0.000000
0.190476 -3.000000 0.000000
0.380952 -3.000000 0.000000
0.571429 -3.000000 0.000000
0.761905 -3.000000 0.000000
0.952381 -3.000000 0.000000
1.142857 -3.000000 0.000000
1.333333 -3.000000 0.000000
1.523810 -3.000000 0.000000
1.714286 -3.000000 0.000000
1.904762 -3.000000 0.000000
2.095238 -3.000000 0.000000
2.285714 -3.000000 0.000000
2.476190 -3.000000 0.000000
2.666667 -3.000000 0.000000
2.857143 -3.000000 0.000000
3.047619 -3.000000 0.000000
3.238095 -3.000000 0.000000
3.428571 -3.000000 0.000000
3.619048 -3.000000 0.000000
3.809524 -3.000000 0.000000
4.000000 -3.000000 0.000000
4.190476 -3.000000 0.000000
4.380952 -3.000000 0.000000
4.571429 -3.000000 0.000000
4.761905 -3.000000 0.000000
4.952381 -3.000000 0.000000
5.142857 -3.000000 0.000000
5.333333 -3.000000 0.000000
5.523810 -3.000000 0.000000
5.714286 -3.000000 0.000000
5.904762 -3.000000 0.000000
6.095238 -3.000000 0.000000
6.285714 -3.000000 0.000000
6.476190 -3.000000 0.000000
6.666667 -3.000000 0.000000
6.857143 -3.000000 0.000000
7.047619 -3.000000 0.000000
7.238095 -3.000000 0.000000
7.428571 -3.000000 0.000000
7.619048 -3.000000 0.000000
7.809524 -3.000000 0.000000
8.000000 -3.000000 0.000000
8.190476 -3.000000 0.000000
8.380952 -3.000000 0.000000
8.571429 -3.000000 0.000000
8.761905 -3.000000 0.000000
8.952381 -3.000000 0.000000
9.142857 -3.000000 0.000000
9.333333 -3.000000 0.000000
9.523810 -3.000000 0.000000
9.714286 -3.000000 0.000000
9.904762 -3.000000 0.000000
10.095238 -3.000000 0.000000
10.285714 -3.000000 0.000000
10.476190 -3.000000 0.000000
10.666667 -3.000000 0.000000
10.857143 -3.000000 0.000000
11.047619 -3.000000 0.000000
11.238095 -3.000000 0.000000
11.428571 -3.000000 0.000000
11.619048 -3.000000 0.000000
11.809524 -3.000000 0.000000
12.000000 -3.000000 0.000000
0.000000 -2.846154 0.000000
0.190476 -2.846154 0.000000
0.380952 -2.846154 0.000000
0.571429 -2.846154 0.000000
0.761905 -2.846154 0.000000
0.952381 -2.846154 0.000000
1.142857 -2.846154 0.000000
1.333333 -2.846154 0.000000
1.523810 -2.846154 0.000000
1.714286 -2.846154 0.000000
1.904762 -2.846154 0.000000
2.095238 -2.846154 0.000000
2.285714 -2.846154 0.000000
2.476190 -2.846154 0.000000
2.666667 -2.846154 0.000000
2.857143 -2.846154 0.000000
3.047619 -2.846154 0.000000
3.238095 -2.846154 0.000000
3.428571 -2.846154 0.000000
3.619048 -2.846154 0.000000
3.809524 -2.846154 0.000000
4.000000 -2.846154 0.000000
4.190476 -2.846154 0.000000
4.380952 -2.846154 0.000000
4.571429 -2.846154 0.000000
4.761905 -2.846154 0.000000
4.952381 -2.846154 0.000000
5.142857 -2.846154 0.000000
5.333333 -2.846154 0.000000
5.523810 -2.846154 0.000000
5.714286 -2.846154 0.000000
5.904762 -2.846154 0.000000
6.095238 -2.846154 0.000000
6.285714 -2.846154 0.000000
6.476190 -2.846154 0.000000
6.666667 -2.846154 0.000000
6.857143 -2.846154 0.000000
7.047619 -2.846154 0.000000
7.238095 -2.846154 0.000000
7.428571 -2.846154 0.000000
7.619048 -2.846154 0.000000
7.809524 -2.846154 0.000000
8.000000 -2.846154 0.000000
8.190476 -2.846154 0.000000
8.380952 -2.846154 0.000000
8.571429 -2.846154 0.000000
8.761905 -2.846154 0.000000
8.952381 -2.846154 0.000000
9.142857 -2.846154 0.000000
9.333333 -2.846154 0.000000
9.523810 -2.846154 0.000000
9.714286 -2.846154 0.000000
9.904762 -2.846154 0.000000
10.095238 -2.846154 0.000000
10.285714 -2.846154 0.000000
10.476190 -2.846154 0.000000
10.666667 -2.846154 0.000000
10.857143 -2.846154 0.000000
11.047619 -2.846154 0.000000
11.238095 -2.846154 0.000000
11.428571 -2.846154 0.000000
11.619048 -2.846154 0.000000
11.809524 -2.846154 0.000000
12.000000 -2.846154 0.000000
0.000000 -2.692308 0.000000
0.190476 -2.692308 0.000000
0.380952 -2.692308 0.000000
0.571429 -2.692308 0.000000
0.761905 -2.692308 0.000000
0.952381 -2.692308 0.000000
1.142857 -2.692308 0.000000
1.333333 -2.692308 0.000000
1.523810 -2.692308 0.000000
1.714286 -2.692308 0.000000
1.904762 -2.692308 0.000000
2.095238 -2.692308 0.000000
2.285714 -2.692308 0.000000
2.476190 -2.692308 0.000000
2.666667 -2.692308 0.000000
2.857143 -2.692308 0.000000
3.047619 -2.692308 0.000000
3.238095 -2.692308 0.000000
3.428571 -2.692308 0.000000
3.619048 -2.692308 0.000000
3.809524 -2.692308 0.000000
4.000000 -2.692308 0.000000
4.190476 -2.692308 0.000000
4.380952 -2.692308 0.000000
4.571429 -2.692308 0.000000
4.761905 -2.692308 0.000000
4.952381 -2.692308 0.000000
5.142857 -2.692308 0.000000
5.333333 -2.692308 0.000000
5.523810 -2.692308 0.000000
5.714286 -2.692308 0.000000
5.904762 -2.692308 0.000000
6.095238 -2.692308 0.000000
6.285714 -2.692308 0.000000
6.476190 -2.692308 0.000000
6.666667 -2.692308 0.000000
6.857143 -2.692308 0.000000
7.047619 -2.692308 0.000000
7.238095 -2.692308 0.000000
7.428571 -2.692308 0.000000
7.619048 -2.692308 0.000000
7.809524 -2.692308 0.000000
8.000000 -2.692308 0.000000
8.190476 -2.692308 0.000000
8.380952 -2.692308 0.000000
8.571429 -2.692308 0.000000
8.761905 -2.692308 0.000000
8.952381 -2.692308 0.000000
9.142857 -2.692308 0.000000
9.333333 -2.692308 0.000000
9.523810 -2.692308 0.000000
9.714286 -2.692308 0.000000
9.904762 -2.692308 0.000000
10.095238 -2.692308 0.000000
10.285714 -2.692308 0.000000
10.476190 -2.692308 0.000000
10.666667 -2.692308 0.000000
10.857143 -2.692308 0.000000
11.047619 -2.692308 0.000000
11.238095 -2.692308 0.000000
11.428571 -2.692308 0.000000
11.619048 -2.692308 0.000000
11.809524 -2.692308 0.000000
12.000000 -2.692308 0.000000
0.000000 -2.538462 0.000000
0.190476 -2.538462 0.000000
0.380952 -2.538462 0.000000
0.571429 -2.538462 0.000000
0.761905 -2.538462 0.000000
0.952381 -2.538462 0.000000
1.142857 -2.538462 0.000000
1.333333 -2.538462 0.000000
1.523810 -2.538462 0.000000
1.714286 -2.538462 0.000000
1.904762 -2.538462 0.000000
2.095238 -2.538462 0.000000
2.285714 -2.538462 0.000000
2.476190 -2.538462 0.000000
2.666667 -2.538462 0.000000
2.857143 -2.538462 0.000000
3.047619 -2.538462 0.000000
3.238095 -2.538462 0.000000
3.428571 -2.538462 0.000000
3.619048 -2.538462 0.000000
3.809524 -2.538462 0.000000
4.000000 -2.538462 0.000000
4.190476 -2.538462 0.000000
4.380952 -2.538462 0.000000
4.571429 -2.538462 0.000000
4.761905 -2.538462 0.000000
4.952381 -2.538462 0.000000
5.142857 -2.538462 0.000000
5.333333 -2.538462 0.000000
5.523810 -2.538462 0.000000
5.714286 -2.538462 0.000000
5.904762 -2.538462 0.000000
6.095238 -2.538462 0.000000
6.285714 -2.538462 0.000000
6.476190 -2.538462 0.000000
6.666667 -2.538462 0.000000
6.857143 -2.538462 0.000000
7.047619 -2.538462 0.000000
7.238095 -2.538462 0.000000
7.428571 -2.538462 0.000000
7.619048 -2.538462 0.000000
7.809524 -2.538462 0.000000
8.000000 -2.538462 0.000000
8.190476 -2.538462 0.000000
8.380952 -2.538462 0.000000
8.571429 -2.538462 0.000000
8.761905 -2.538462 0.000000
8.952381 -2.538462 0.000000
9.142857 -2.538462 0.000000
9.333333 -2.538462 0.000000
9.523810 -2.538462 0.000000
9.714286 -2.538462 0.000000
9.904762 -2.538462 0.000000
10.095238 -2.538462 0.000000
10.285714 -2.538462 0.000000
10.476190 -2.538462 0.000000
10.666667 -2.538462 0.000000
10.857143 -2.538462 0.000000
11.047619 -2.538462 0.000000
11.238095 -2.538462 0.000000
11.428571 -2.538462 0.000000
11.619048 -2.538462 0.000000
11.809524 -2.538462 0.000000
12.000000 -2.538462 0.000000
0.000000 -2.384615 0.000000
0.190476 -2.384615 0.000000
0.380952 -2.384615 0.000000
0.571429 -2.384615 0.000000
0.761905 -2.384615 0.000000
0.952381 -2.384615 0.000000
1.142857 -2.384615 0.000000
1.333333 -2.384615 0.000000
1.523810 -2.384615 0.000000
1.714286 -2.384615 0.000000
1.904762 -2.384615 0.000000
2.095238 -2.384615 0.000000
2.285714 -2.384615 0.000000
2.476190 -2.384615 0.000000
2.666667 -2.384615 0.000000
2.857143 -2.384615 0.000000
3.047619 -2.384615 0.000000
3.238095 -2.384615 0.000000
3.428571 -2.384615 0.000000
3.619048 -2.384615 0.000000
3.809524 -2.384615 0.000000
4.000000 -2.384615 0.000000
4.190476 -2.384615 0.000000
4.380952 -2.384615 0.000000
4.571429 -2.384615 0.000000
4.761905 -2.384615 0.000000
4.952381 -2.384615 0.000000
5.142857 -2.384615 0.000000
5.333333 -2.384615 0.000000
5.523810 -2.384615 0.000000
5.714286 -2.384615 0.000000
5.904762 -2.384615 0.000000
6.095238 -2.384615 0.000000
6.285714 -2.384615 0.000000
6.476190 -2.384615 0.000000
6.666667 -2.384615 0.000000
6.857143 -2.384615 0.000000
7.047619 -2.384615 0.000000
7.238095 -2.384615 0.000000
7.428571 -2.384615 0.000000
7.619048 -2.384615 0.000000
7.809524 -2.384615 0.000000
8.000000 -2.384615 0.000000
8.190476 -2.384615 0.000000
8.380952 -2.384615 0.000000
8.571429 -2.384615 0.000000
8.761905 -2.384615 0.000000
8.952381 -2.384615 0.000000
9.142857 -2.384615 0.000000
9.333333 -2.384615 0.000000
9.523810 -2.384615 0.000000
9.714286 -2.384615 0.000000
9.904762 -2.384615 0.000000
10.095238 -2.384615 0.000000
10.285714 -2.384615 0.000000
10.476190 -2.384615 0.000000
10.666667 -2.384615 0.000000
10.857143 -2.384615 0.000000
11.047619 -2.384615 0.000000
11.238095 -2.384615 0.000000
11.428571 -2.384615 0.000000
11.619048 -2.384615 0.000000
11.809524 -2.384615 0.000000
12.000000 -2.384615 0.000000
0.000000 -2.230769 0.000000
0.190476 -2.230769 0.000000
0.380952 -2.230769 0.000000
0.571429 -2.230769 0.000000
0.761905 -2.230769 0.000000
0.952381 -2.230769 0.000000
1.142857 -2.230769 0.000000
1.333333 -2.230769 0.000000
1.523810 -2.230769 0.000000
1.714286 -2.230769 0.000000
1.904762 -2.230769 0.000000
2.095238 -2.230769 0.000000
2.285714 -2.230769 0.000000
2.476190 -2.230769 0.000000
2.666667 -2.230769 0.000000
2.857143 -2.230769 0.000000
3.047619 -2.230769 0.000000
3.238095 -2.230769 0.000000
3.428571 -2.230769 0.000000
3.619048 -2.230769 0.000000
3.809524 -2.230769 0.000000
4.000000 -2.230769 0.000000
4.190476 -2.230769 0.000000
4.380952 -2.230769 0.000000
4.571429 -2.230769 0.000000
4.761905 -2.230769 0.000000
4.952381 -2.230769 0.000000
5.142857 -2.230769 0.000000
5.333333 -2.230769 0.000000
5.523810 -2.230769 0.000000
5.714286 -2.230769 0.000000
[...]
POINT_DATA 2560
SCALARS pressure float 1
LOOKUP_TABLE default
0.516934
0.516071
0.515024
0.513762
0.512251
0.510454
0.508333
0.505849
0.502964
0.499645
0.495864
0.491604
0.486857
0.481630
0.475948
0.469851
0.463401
0.456678
0.449780
0.442824
0.435938
0.429261
0.422940
0.417120
0.411942
0.407535
0.404015
0.401474
0.399981
0.399578
0.400273
0.402049
0.404855
0.408617
0.413234
0.418587
0.424543
0.430959
0.437690
0.444592
0.451527
0.458373
0.465017
0.471368
0.477351
0.482912
0.488014
0.492639
0.496782
0.500455
0.503677
0.506476
0.508887
0.510944
0.512686
0.514150
0.515370
0.516378
0.517204
0.517873
0.518408
0.518827
0.519149
0.519386
0.517343
0.516609
0.515726
0.514672
0.513420
0.511939
0.510198
0.508164
0.505807
0.503096
0.500009
0.496526
0.492643
0.488361
0.483700
0.478692
0.473387
0.467850
0.462163
0.456421
0.450732
0.445213
0.439983
0.435166
0.430878
0.427228
0.424313
0.422210
0.420976
0.420646
0.421227
0.422703
0.425032
0.428151
0.431977
0.436410
0.441337
0.446641
0.452200
0.457893
0.463609
0.469243
0.474706
0.479921
0.484827
0.489383
0.493558
0.497341
0.500729
0.503733
0.506370
0.508666
0.510648
0.512347
0.513793
0.515015
0.516042
0.516897
0.517604
0.518181
0.518645
0.519011
0.519290
0.519493
0.517877
0.517308
0.516639
0.515852
0.514931
0.513855
0.512600
0.511144
0.509460
0.507528
0.505326
0.502839
0.500060
0.496988
0.493634
0.490021
0.486182
0.482166
0.478030
0.473845
0.469690
0.465653
0.461822
0.458289
0.455141
0.452460
0.450318
0.448775
0.447873
0.447638
0.448074
0.449167
0.450886
0.453183
0.455995
0.459248
0.462858
0.466736
0.470792
0.474938
0.479090
0.483173
0.487122
0.490881
0.494410
0.497678
0.500668
0.503373
0.505795
0.507943
0.509833
0.511484
0.512918
0.514157
0.515223
0.516135
0.516913
0.517571
0.518123
0.518581
0.518953
0.519247
0.519471
0.519630
0.518498
0.518122
0.517698
0.517222
0.516685
0.516078
0.515387
0.514598
0.513696
0.512665
0.511489
0.510157
0.508658
0.506988
0.505151
0.503155
0.501016
0.498762
0.496424
0.494043
0.491667
0.489345
0.487133
0.485083
0.483250
0.481684
0.480432
0.479535
0.479020
0.478899
0.479173
0.479829
0.480846
0.482193
0.483833
0.485720
0.487804
0.490030
0.492346
0.494698
0.497038
0.499322
0.501515
0.503587
0.505518
0.507294
0.508910
0.510366
0.511668
0.512824
0.513848
0.514753
0.515552
0.516258
0.516883
0.517436
0.517925
0.518354
0.518727
0.519045
0.519310
0.519522
0.519681
0.519789
0.519162
0.518993
0.518834
0.518691
0.518567
0.518464
0.518380
0.518312
0.518251
0.518192
0.518122
0.518034
0.517915
0.517758
0.517555
0.517301
0.516995
0.516638
0.516236
0.515797
0.515332
0.514855
0.514377
0.513912
0.513476
0.513089
0.512777
0.512566
0.512470
0.512489
0.512608
0.512811
0.513084
0.513418
0.513802
0.514223
0.514667
0.515118
0.515561
0.515982
0.516369
0.516716
0.517017
0.517271
0.517479
0.517647
0.517781
0.517891
0.517985
0.518073
0.518164
0.518265
0.518380
0.518513
0.518664
0.518831
0.519009
0.519193
0.519373
0.519543
0.519693
0.519817
0.519908
0.519960
0.519823
0.519861
0.519968
0.520161
0.520454
0.520861
0.521391
0.522051
0.522843
0.523767
0.524819
0.525990
0.527270
0.528644
0.530096
0.531606
0.533154
0.534716
0.536271
0.537793
0.539257
0.540633
0.541891
0.542996
0.543923
0.544667
0.545251
0.545708
0.546053
0.546258
0.546277
0.546070
0.545627
0.544957
0.544083
0.543031
0.541823
0.540483
0.539035
0.537505
0.535920
0.534307
0.532693
0.531105
0.529569
0.528108
0.526742
0.525488
0.524359
0.523366
0.522512
0.521799
0.521223
0.520778
0.520451
0.520229
0.520095
0.520032
0.520020
0.520041
0.520078
0.520114
0.520136
0.520134
0.520436
0.520667
0.521024
0.521534
0.522222
0.523113
0.524227
0.525581
0.527186
0.529048
0.531169
0.533542
0.536155
0.538989
0.542017
0.545207
0.548519
0.551907
0.555320
0.558702
0.561990
0.565111
0.567977
0.570496
0.572592
0.574246
0.575528
0.576551
0.577361
0.577881
0.577964
0.577497
0.576456
0.574881
0.572838
0.570399
0.567631
0.564595
0.561354
0.557972
0.554511
0.551033
0.547597
0.544255
0.541057
0.538043
0.535246
0.532692
0.530397
0.528373
0.526620
0.525133
0.523900
0.522905
0.522125
0.521536
0.521109
0.520814
0.520623
0.520507
0.520438
0.520393
0.520352
0.520298
0.520956
0.521355
0.521930
0.522718
0.523756
0.525076
0.526709
0.528680
0.531009
0.533709
0.536784
0.540229
0.544032
0.548167
0.552600
0.557285
0.562165
0.567174
0.572235
0.577263
0.582155
0.586786
0.590994
0.594586
0.597396
0.599413
0.600888
0.602217
0.603590
0.604784
0.605357
0.604992
0.603621
0.601345
0.598315
0.594670
0.590529
0.585997
0.581170
0.576146
0.571021
0.565887
0.560829
0.555926
0.551247
0.546848
0.542775
0.539062
0.535728
0.532785
0.530230
0.528055
0.526239
0.524757
0.523578
0.522666
0.521982
0.521488
0.521142
0.520908
0.520750
0.520637
0.520542
0.520444
0.521346
0.521875
0.522622
0.523633
0.524952
0.526620
0.528677
0.531153
0.534076
0.537462
0.541319
0.545644
0.550421
0.555622
0.561204
0.567109
0.573268
0.579596
0.585995
0.592351
0.598523
0.604314
0.609434
0.613490
0.616104
0.617289
0.617808
0.618878
0.621118
0.623910
0.625998
0.626518
0.625329
0.622697
0.618957
0.614372
0.609136
0.603397
0.597288
0.590934
0.584456
0.577972
0.571592
0.565413
0.559522
0.553990
0.548872
0.544208
0.540022
0.536326
0.533117
0.530379
0.528089
0.526213
0.524713
0.523543
0.522656
0.522005
0.521541
0.521218
0.520993
0.520829
0.520694
0.520562
0.521576
0.522189
0.523051
0.524214
0.525729
0.527644
0.530003
0.532843
0.536193
0.540075
0.544498
0.549458
0.554937
0.560904
0.567310
0.574089
0.581159
0.588424
0.595769
0.603056
0.610095
0.616587
0.622012
0.625547
0.626319
0.624366
0.621671
0.621405
0.625210
0.631550
0.637252
0.640172
0.640049
0.637578
0.633499
0.628312
0.622326
0.615747
0.608736
0.601442
0.594004
0.586560
0.579235
0.572143
0.565383
0.559035
0.553164
0.547814
0.543015
0.538777
0.535097
0.531957
0.529330
0.527176
0.525452
0.524105
0.523083
0.522330
0.521791
0.521414
0.521150
0.520957
0.520799
0.520646
0.521626
0.522269
0.523181
0.524417
0.526032
0.528077
0.530599
0.533638
0.537227
0.541387
0.546126
0.551439
0.557307
0.563694
0.570550
0.577802
0.585363
0.593127
0.600969
0.608728
0.616163
0.622817
0.627775
0.629405
0.625852
0.617227
0.607911
0.604730
0.611176
0.624087
0.636714
0.644409
0.646654
0.645024
0.641048
0.635647
0.629306
0.622302
0.614825
0.607037
0.599091
0.591133
0.583299
0.575710
0.568473
0.561676
0.555389
0.549660
0.544520
0.539982
0.536043
0.532685
0.529877
0.527579
0.525742
0.524312
0.523230
0.522436
0.521872
0.521481
0.521210
0.521013
0.520850
0.520689
0.521486
0.522106
0.522998
0.524222
0.525833
0.527884
0.530422
0.533489
0.537120
0.541337
0.546137
0.551502
0.557409
0.563834
0.570731
0.578026
0.585626
0.593420
0.601280
0.609028
0.616359
0.622614
0.626291
0.624505
0.613916
0.594928
0.575648
0.568042
0.578083
0.600480
0.623493
0.638582
0.644639
0.644569
0.641152
0.635937
0.629656
0.622667
0.615186
0.607383
0.599410
0.591416
0.583537
0.575897
0.568606
0.561753
0.555409
0.549627
0.544440
0.539862
0.535891
0.532510
0.529690
0.527389
0.525558
0.524142
0.523081
0.522313
0.521776
0.521412
0.521167
0.520991
0.520843
0.520691
0.521161
0.521701
0.522506
0.523633
0.525137
0.527069
0.529479
0.532419
0.535949
0.540096
0.544786
0.549898
0.555408
0.561390
0.567865
0.574752
0.581932
0.589287
0.596685
0.603940
0.610690
0.616050
0.617836
0.611682
0.592587
0.561571
0.531072
0.518450
0.532193
0.564943
0.599773
0.623609
0.634336
0.636316
0.633828
0.629174
0.623357
0.616821
0.609800
0.602458
0.594942
0.587391
0.579936
0.572694
0.565772
0.559258
0.553221
0.547716
0.542776
0.538418
0.534643
0.531437
0.528772
0.526610
0.524904
0.523601
0.522640
0.521962
0.521505
0.521210
0.521022
0.520892
0.520778
0.520649
0.520663
0.521073
0.521726
0.522677
0.523978
0.525678
0.527845
0.530614
0.534205
0.538685
0.543574
0.548147
0.552377
0.556936
0.562251
0.568201
0.574508
0.580976
0.587462
0.593780
0.599532
0.603662
0.603429
0.593246
0.566810
0.525786
0.486090
0.469208
0.485576
0.526391
0.570808
0.602051
0.616939
0.620933
0.619565
0.615775
0.610792
0.605118
0.598989
0.592559
0.585956
0.579301
0.572711
0.566293
0.560142
0.554340
0.548954
0.544037
0.539623
0.535732
0.532368
0.529521
0.527170
0.525282
0.523812
0.522713
0.521928
0.521400
0.521070
0.520882
0.520781
0.520721
0.520660
0.520568
0.520019
0.520255
0.520701
0.521407
0.522420
0.523801
0.525713
0.528682
0.533683
0.540988
0.548264
0.552048
0.552305
0.552440
0.554735
0.558871
0.563815
0.568991
0.574171
0.579172
0.583606
0.586377
0.584559
0.572111
0.542206
0.496655
0.452666
0.433444
0.450385
0.494227
0.542570
0.577111
0.594155
0.599532
0.599265
0.596556
0.592717
0.588260
0.583406
0.578283
0.572993
0.567634
0.562299
0.557078
0.552052
0.547293
0.542862
0.538808
0.535166
0.531959
0.529196
0.526873
0.524976
0.523477
0.522342
0.521526
0.520982
0.520657
0.520496
0.520447
0.520459
0.520487
0.520494
0.520451
0.519264
0.519290
0.519485
0.519892
0.520555
0.521582
0.523489
0.528151
0.539161
0.557501
0.574499
0.577301
0.565851
0.552932
0.547190
0.547605
0.550535
0.554058
0.557616
0.561012
0.563917
0.565369
0.562736
0.550493
0.522188
0.479078
0.436946
0.417828
0.432883
0.473529
0.518656
0.551166
0.567659
0.573484
0.574169
0.572676
0.570220
0.567263
0.563989
0.560490
0.556836
0.553093
0.549327
0.545605
0.541989
0.538539
0.535308
0.532339
0.529669
0.527322
0.525313
0.523646
0.522314
0.521299
0.520575
0.520108
0.519855
0.519773
0.519813
0.519928
0.520072
0.520204
0.520291
0.520306
0.518438
0.518234
0.518149
0.518220
0.518496
0.519219
0.521809
0.531599
0.558855
0.606379
0.649366
0.651078
0.611393
0.566961
0.542631
0.535594
0.535535
0.537083
0.538801
0.540409
0.541680
0.541929
0.539192
0.529192
0.506582
0.471632
0.436536
0.419607
0.430644
0.462804
0.498816
0.525014
0.538792
0.544285
0.545767
0.545565
0.544653
0.543391
0.541908
0.540253
0.538458
0.536553
0.534575
0.532563
0.530558
0.528605
0.526745
0.525018
0.523459
0.522095
0.520948
0.520029
0.519340
0.518874
0.518615
0.518538
0.518612
0.518799
0.519061
0.519355
0.519643
0.519889
0.520062
0.520141
0.517590
0.517145
0.516768
0.516487
0.516367
0.516905
0.521201
0.540975
0.598804
0.700829
0.792487
0.793118
0.702408
0.600939
0.543500
0.523993
0.519777
0.519097
0.518865
0.518610
0.518219
0.517340
0.514822
0.507882
0.492573
0.468186
0.442490
0.428706
0.434608
0.455779
0.480181
0.498426
0.508672
0.513515
0.515720
0.516843
0.517551
0.518080
0.518492
0.518791
0.518967
0.519013
0.518933
0.518737
0.518446
0.518085
0.517686
0.517282
0.516906
0.516589
0.516359
0.516234
0.516228
0.516343
0.516574
0.516908
0.517322
0.517791
0.518282
0.518762
0.519198
0.519559
0.519821
0.519966
0.516767
0.516088
0.515423
0.514793
0.514288
0.514730
0.521352
0.553976
0.650777
0.822019
0.975317
0.975042
0.820333
0.646996
0.548007
0.513154
0.504164
0.501176
0.499001
0.496894
0.494814
0.492702
0.490167
0.485800
0.476924
0.462056
0.445001
0.434096
0.435125
0.446146
0.460123
0.471377
0.478543
0.482856
0.485791
0.488226
0.490543
0.492853
0.495154
0.497399
0.499538
0.501530
0.503343
0.504961
0.506381
0.507612
0.508674
0.509593
0.510401
0.511133
0.511819
0.512488
0.513161
0.513854
0.514572
0.515312
0.516063
0.516807
0.517522
0.518182
0.518761
0.519235
0.519583
0.519793
0.516018
0.515123
0.514191
0.513238
0.512366
0.512636
0.520847
0.562776
0.688054
0.909830
1.107499
1.106550
0.905115
0.678689
0.548813
0.502319
0.489446
0.484377
0.480374
0.476445
0.472503
0.468647
0.465189
0.462011
0.457508
0.449547
0.438884
0.430157
0.427717
0.431578
0.438342
0.444834
0.449962
0.454063
0.457753
0.461431
0.465255
0.469232
0.473299
0.477365
0.481343
0.485157
0.488745
0.492064
0.495091
0.497817
0.500250
0.502413
0.504335
0.506050
0.507597
0.509011
0.510323
0.511556
0.512728
0.513845
0.514907
0.515906
0.516826
0.517650
0.518359
0.518934
0.519361
0.519630
0.515388
0.514308
0.513147
0.511912
0.510698
0.510555
0.518274
0.559626
0.684236
0.905271
1.102172
1.100199
0.897525
0.669838
0.538621
0.490696
0.476316
0.469683
0.464043
0.458252
0.451942
0.445176
0.439120
0.435341
0.433435
0.430543
0.424799
0.418147
0.414101
0.414034
0.416777
0.420625
0.424694
0.428867
0.433290
0.438069
0.443210
0.448640
0.454244
0.459898
0.465479
0.470881
0.476018
0.480823
0.485254
0.489287
0.492922
0.496174
0.499070
0.501648
0.503948
0.506013
0.507881
0.509585
0.511151
0.512595
0.513924
0.515140
0.516234
0.517198
0.518016
0.518677
0.519169
0.519489
0.514913
0.513691
0.512353
0.510896
0.509384
0.508613
0.513789
0.544711
0.639542
0.808551
0.959351
0.956100
0.797975
0.620971
0.518045
0.478986
0.465563
0.457964
0.450910
0.443118
0.433563
0.422074
0.411153
0.405012
0.404984
0.407174
0.406680
0.402937
0.398996
0.397334
0.398210
0.400812
0.404451
0.408837
0.413888
0.419552
0.425738
0.432318
0.439140
0.446050
0.452901
0.459564
0.465931
0.471916
0.477463
0.482538
0.487130
0.491250
0.494924
0.498189
0.501090
0.503673
0.505983
0.508060
0.509936
0.511635
0.513173
0.514555
0.515783
0.516852
0.517752
0.518477
0.519019
0.519377
0.514624
0.513312
0.511858
0.510252
0.508521
0.507119
0.509101
0.526150
0.580811
0.679202
0.766718
0.762613
0.666587
0.559301
0.495574
0.469340
0.458028
0.449937
0.441737
0.431832
0.418159
0.400180
0.382360
0.372623
0.374605
0.383018
0.389129
0.389501
0.386893
0.384943
0.385088
0.387161
0.390658
0.395244
0.400737
0.407002
0.413895
0.421251
0.428896
0.436656
0.444369
0.451887
0.459090
0.465880
0.472190
0.477976
0.483224
0.487939
0.492147
0.495884
0.499197
0.502134
0.504745
0.507073
0.509157
0.511025
0.512699
0.514189
0.515501
0.516634
0.517584
0.518347
0.518919
0.519301
0.514539
0.513194
0.511693
0.510023
0.508181
0.506352
0.505901
0.512105
0.535182
0.577894
0.615388
0.610886
0.564266
0.512218
0.479631
0.463753
0.454361
0.446123
0.437157
0.425370
0.407496
0.382625
0.357454
0.343930
0.348094
0.363209
0.376521
0.381556
0.380818
0.379150
0.379055
0.380888
0.384303
0.388964
0.394649
0.401183
0.408396
0.416108
0.424131
0.432284
0.440396
0.448314
0.455909
0.463080
0.469751
0.475878
0.481441
0.486444
0.490909
0.494874
0.498384
0.501490
0.504242
0.506687
0.508863
0.510804
0.512532
0.514063
0.515404
0.516558
0.517523
0.518296
0.518877
0.519267
0.514665
0.513347
0.511872
0.510226
0.508391
0.506409
0.504728
0.505159
0.511236
0.523887
0.534395
0.529875
0.510269
0.488385
0.472914
0.462910
0.454834
0.446794
0.437628
0.424805
0.404120
0.374362
0.343910
0.327695
0.333567
0.353813
0.372733
0.381507
0.382384
0.381102
0.380937
0.382606
0.385873
0.390418
0.396007
0.402453
0.409578
0.417199
0.425132
0.433196
0.441222
0.449059
0.456580
0.463684
0.470297
0.476372
0.481891
0.486855
0.491287
0.495222
0.498705
0.501784
0.504510
0.506927
0.509076
0.510988
0.512687
0.514189
0.515502
0.516629
0.517571
0.518326
0.518893
0.519275
0.514999
0.513765
0.512388
0.510853
0.509138
0.507233
0.505229
0.503578
0.503192
0.504282
0.504470
0.500264
0.491626
0.481981
0.473663
0.466431
0.459370
0.451938
0.443293
0.430821
0.410045
0.379557
0.348051
0.331261
0.337676
0.359507
0.380304
0.390488
0.392097
0.391052
0.390852
0.392339
0.395338
0.399548
0.404742
0.410739
0.417370
0.424461
0.431840
0.439337
0.446797
0.454078
0.461063
0.467658
0.473794
0.479431
0.484549
0.489153
0.493263
0.496913
0.500144
0.503003
0.505536
0.507785
0.509786
0.511569
0.513155
0.514560
0.515789
0.516846
0.517729
0.518437
0.518968
0.519326
0.515523
0.514429
0.513215
0.511870
0.510378
0.508714
0.506871
0.504910
0.502985
0.501103
0.498736
0.495133
0.490261
0.484815
0.479271
0.473593
0.467625
0.461241
0.453830
0.443167
0.425290
0.398740
0.370971
0.356007
0.361630
0.380966
0.399330
0.408241
0.409561
0.408555
0.408313
0.409572
0.412164
0.415821
0.420336
0.425547
0.431305
0.437457
0.443850
0.450339
0.456785
0.463069
0.469088
0.474763
0.480036
0.484872
0.489260
0.493203
0.496723
0.499850
0.502622
0.505081
0.507265
0.509214
0.510956
0.512517
0.513914
0.515158
0.516252
0.517196
0.517987
0.518622
0.519098
0.519416
0.516211
0.515302
0.514308
0.513224
0.512038
0.510730
0.509278
0.507665
0.505884
0.503904
0.501609
0.498851
0.495601
0.491954
0.487979
0.483678
0.479057
0.474106
0.468460
0.460585
0.447586
0.428170
0.407565
0.396253
0.400235
0.414281
0.427320
0.433236
0.433669
0.432613
0.432330
0.433304
0.435361
0.438268
0.441855
0.445989
0.450546
0.455404
0.460440
0.465536
0.470585
0.475490
0.480172
0.484572
0.488646
0.492371
0.495742
0.498766
0.501464
0.503863
0.505996
0.507898
0.509601
0.511135
0.512523
0.513782
0.514923
0.515951
0.516865
0.517660
0.518331
0.518871
0.519275
0.519541
0.517025
0.516338
0.515610
0.514840
0.514026
0.513156
0.512213
0.511177
0.510022
0.508718
0.507226
0.505500
0.503516
0.501268
0.498754
0.495976
0.492956
0.489720
0.486113
0.481303
0.473571
0.461976
0.449475
0.442500
0.444841
0.453130
0.460443
0.463247
0.462844
0.461806
0.461495
0.462132
0.463543
0.465545
0.468008
0.470834
0.473935
0.477222
0.480610
0.484015
0.487363
0.490591
0.493648
0.496494
0.499108
0.501479
0.503610
0.505512
0.507206
0.508716
0.510070
0.511293
0.512410
0.513440
0.514398
0.515292
0.516125
0.516895
0.517595
0.518214
0.518742
0.519170
0.519488
0.519692
0.517922
0.517482
0.517047
0.516628
0.516229
0.515849
0.515482
0.515115
0.514731
0.514310
0.513827
0.513257
0.512578
0.511771
0.510820
0.509719
0.508475
0.507118
0.505619
0.503642
0.500373
0.495262
0.489613
0.486561
0.487978
0.492046
0.495252
0.496029
0.495279
0.494409
0.494082
0.494337
0.495025
0.496015
0.497223
0.498590
0.500064
0.501598
0.503144
0.504660
0.506109
0.507464
0.508702
0.509814
0.510795
0.511651
0.512394
0.513041
0.513611
0.514126
0.514606
0.515070
0.515530
0.515998
0.516477
0.516965
0.517456
0.517939
0.518401
0.518826
0.519198
0.519502
0.519725
0.519860
0.518854
0.518670
0.518542
0.518489
0.518524
0.518657
0.518892
0.519228
0.519660
0.520176
0.520762
0.521401
0.522072
0.522754
0.523427
0.524072
0.524678
0.525257
0.525817
0.526269
0.526311
0.525673
0.524753
0.524683
0.526108
0.528195
0.529531
0.529643
0.529080
0.528498
0.528150
0.527992
0.527917
0.527848
0.527744
0.527586
0.527362
0.527063
0.526685
0.526227
0.525693
0.525090
0.524430
0.523728
0.523003
0.522277
0.521569
0.520904
0.520299
0.519774
0.519341
0.519010
0.518785
0.518664
0.518642
0.518705
0.518840
0.519025
0.519240
0.519463
0.519672
0.519847
0.519973
0.520037
0.519771
0.519839
0.520013
0.520319
0.520781
0.521418
0.522245
0.523273
0.524507
0.525945
0.527583
0.529408
0.531404
0.533548
0.535814
0.538171
0.540592
0.543057
0.545562
0.548084
0.550524
0.552748
0.554772
0.556814
0.558946
0.560812
0.561968
0.562371
0.562313
0.562055
0.561661
0.561079
0.560245
0.559132
0.557738
0.556080
0.554184
0.552083
0.549814
0.547417
0.544933
0.542407
0.539882
0.537400
0.535000
0.532719
0.530588
0.528633
0.526875
0.525327
0.523997
0.522885
0.521985
0.521286
0.520771
0.520417
0.520201
0.520093
0.520065
0.520089
0.520137
0.520187
0.520216
0.520210
0.520623
0.520925
0.521378
0.522018
0.522874
0.523976
0.525349
0.527014
0.528987
0.531275
0.533880
0.536798
0.540012
0.543502
0.547234
0.551168
0.555258
0.559458
0.563729
0.568033
0.572308
0.576455
0.580366
0.583957
0.587108
0.589641
0.591435
0.592527
0.593045
0.593071
0.592605
0.591611
0.590070
0.587989
0.585402
0.582357
0.578918
0.575153
0.571138
0.566951
0.562670
0.558372
0.554129
0.550007
0.546065
0.542353
0.538911
0.535770
0.532949
0.530459
0.528302
0.526470
0.524949
0.523716
0.522745
0.522005
0.521463
0.521083
0.520830
0.520669
0.520569
0.520501
0.520441
0.520369
0.521366
0.521870
0.522565
0.523491
0.524686
0.526186
0.528026
0.530235
0.532837
0.535849
0.539280
0.543128
0.547382
0.552018
0.557000
0.562280
0.567796
0.573479
0.579259
0.585060
0.590799
0.596366
0.601624
0.606418
0.610593
0.614018
0.616628
0.618424
0.619437
0.619673
0.619117
0.617757
0.615602
0.612688
0.609074
0.604839
0.600075
0.594883
0.589373
0.583653
0.577835
0.572022
0.566311
0.560790
0.555532
0.550600
0.546041
0.541888
0.538162
0.534869
0.532006
0.529559
0.527506
0.525815
0.524454
0.523382
0.522559
0.521944
0.521495
0.521173
0.520943
0.520772
0.520634
0.520506
0.521961
0.522626
0.523511
0.524660
0.526117
0.527925
0.530123
0.532750
0.535834
0.539399
0.543460
0.548020
0.553070
0.558584
0.564526
0.570838
0.577450
0.584277
0.591223
0.598183
0.605044
0.611675
0.617929
0.623643
0.628663
0.632861
0.636155
0.638500
0.639870
0.640242
0.639601
0.637947
0.635310
0.631745
0.627333
0.622173
0.616382
0.610085
0.603418