# vtk DataFile Version 3.0
structured grid
ASCII
DATASET STRUCTURED_GRID
DIMENSIONS 64 40 1
POINTS 2560 float
0.000000 -3.000000 0.000000
0.190476 -3.000000 0.000000
0.380952 -3.000000 0.000000
0.571429 -3.000000 0.000000
0.761905 -3.000000 0.000000
0.952381 -3.000000 0.000000
1.142857 -3.000000 0.000000
1.333333 -3.000000 0.000000
1.523810 -3.000000 0.000000
1.714286 -3.000000 0.000000
1.904762 -3.000000 0.000000
2.095238 -3.000000 0.000000
2.285714 -3.000000 0.000000
2.476190 -3.000000 0.000000
2.666667 -3.000000 0.000000
2.857143 -3.000000 0.000000
3.047619 -3.000000 0.000000
3.238095 -3.000000 0.000000
3.428571 -3.000000 0.000000
3.619048 -3.000000 0.000000
3.809524 -3.000000 0.000000
4.000000 -3.000000 0.000000
4.190476 -3.000000 0.000000
4.380952 -3.000000 0.000000
4.571429 -3.000000 0.000000
4.761905 -3.000000 0.000000
4.952381 -3.000000 0.000000
5.142857 -3.000000 0.000000
5.333333 -3.000000 0.000000
5.523810 -3.000000 0.000000
5.714286 -3.000000 0.000000
5.904762 -3.000000 0.000000
6.095238 -3.000000 0.000000
6.285714 -3.000000 0.000000
6.476190 -3.000000 0.000000
6.666667 -3.000000 0.000000
6.857143 -3.000000 0.000000
7.047619 -3.000000 0.000000
7.238095 -3.000000 0.000000
7.428571 -3.000000 0.000000
7.619048 -3.000000 0.000000
7.809524 -3.000000 0.000000
8.000000 -3.000000 0.000000
8.190476 -3.000000 0.000000
8.380952 -3.000000 0.000000
8.571429 -3.000000 0.000000
8.761905 -3.000000 0.000000
8.952381 -3.000000 0.000000
9.142857 -3.000000 0.000000
9.333333 -3.000000 0.000000
9.523810 -3.000000 0.000000
9.714286 -3.000000 0.000000
9.904762 -3.000000 0.000000
10.095238 -3.000000 0.000000
10.285714 -3.000000 0.000000
10.476190 -3.000000 0.000000
10.666667 -3.000000 0.000000
10.857143 -3.000000 0.000000
11.047619 -3.000000 0.000000
11.238095 -3.000000 0.000000
11.428571 -3.000000 0.000000
11.619048 -3.000000 0.000000
11.809524 -3.000000 0.000000
12.000000 -3.000000 0.000000
0.000000 -2.846154 0.000000
0.190476 -2.846154 0.000000
0.380952 -2.846154 0.000000
0.571429 -2.846154 0.000000
0.761905 -2.846154 0.000000
0.952381 -2.846154 0.000000
1.142857 -2.846154 0.000000
1.333333 -2.846154 0.000000
1.523810 -2.846154 0.000000
1.714286 -2.846154 0.000000
1.904762 -2.846154 0.000000
2.095238 -2.846154 0.000000
2.285714 -2.846154 0.000000
2.476190 -2.846154 0.000000
2.666667 -2.846154 0.000000
2.857143 -2.846154 0.000000
3.047619 -2.846154 0.000000
3.238095 -2.846154 0.000000
3.428571 -2.846154 0.000000
3.619048 -2.846154 0.000000
3.809524 -2.846154 0.000000
4.000000 -2.846154 0.000000
4.190476 -2.846154 0.000000
4.380952 -2.846154 0.000000
4.571429 -2.846154 0.000000
4.761905 -2.846154 0.000000
4.952381 -2.846154 0.000000
5.142857 -2.846154 0.000000
5.333333 -2.846154 0.000000
5.523810 -2.846154 0.000000
5.714286 -2.846154 0.000000
5.904762 -2.846154 0.000000
6.095238 -2.846154 0.000000
6.285714 -2.846154 0.000000
6.476190 -2.846154 0.000000
6.666667 -2.846154 0.000000
6.857143 -2.846154 0.000000
7.047619 -2.846154 0.000000
7.238095 -2.846154 0.000000
7.428571 -2.846154 0.000000
7.619048 -2.846154 0.000000
7.809524 -2.846154 0.000000
8.000000 -2.846154 0.000000
8.190476 -2.846154 0.000000
8.380952 -2.846154 0.000000
8.571429 -2.846154 0.000000
8.761905 -2.846154 0.000000
8.952381 -2.846154 0.000000
9.142857 -2.846154 0.000000
9.333333 -2.846154 0.000000
9.523810 -2.846154 0.000000
9.714286 -2.846154 0.000000
9.904762 -2.846154 0.000000
10.095238 -2.846154 0.000000
10.285714 -2.846154 0.000000
10.476190 -2.846154 0.000000
10.666667 -2.846154 0.000000
10.857143 -2.846154 0.000000
11.047619 -2.846154 0.000000
11.238095 -2.846154 0.000000
11.428571 -2.846154 0.000000
11.619048 -2.846154 0.000000
11.809524 -2.846154 0.000000
12.000000 -2.846154 0.000000
0.000000 -2.692308 0.000000
0.190476 -2.692308 0.000000
0.380952 -2.692308 0.000000
0.571429 -2.692308 0.000000
0.761905 -2.692308 0.000000
0.952381 -2.692308 0.000000
1.142857 -2.692308 0.000000
1.333333 -2.692308 0.000000
1.523810 -2.692308 0.000000
1.714286 -2.692308 0.000000
1.904762 -2.692308 0.000000
2.095238 -2.692308 0.000000
2.285714 -2.692308 0.000000
2.476190 -2.692308 0.000000
2.666667 -2.692308 0.000000
2.857143 -2.692308 0.000000
3.047619 -2.692308 0.000000
3.238095 -2.692308 0.000000
3.428571 -2.692308 0.000000
3.619048 -2.692308 0.000000
3.809524 -2.692308 0.000000
4.000000 -2.692308 0.000000
4.190476 -2.692308 0.000000
4.380952 -2.692308 0.000000
4.571429 -2.692308 0.000000
4.761905 -2.692308 0.000000
4.952381 -2.692308 0.000000
5.142857 -2.692308 0.000000
5.333333 -2.692308 0.000000
5.523810 -2.692308 0.000000
5.714286 -2.692308 0.000000
5.904762 -2.692308 0.000000
6.095238 -2.692308 0.000000
6.285714 -2.692308 0.000000
6.476190 -2.692308 0.000000
6.666667 -2.692308 0.000000
6.857143 -2.692308 0.000000
7.047619 -2.692308 0.000000
7.238095 -2.692308 0.000000
7.428571 -2.692308 0.000000
7.619048 -2.692308 0.000000
7.809524 -2.692308 0.000000
8.000000 -2.692308 0.000000
8.190476 -2.692308 0.000000
8.380952 -2.692308 0.000000
8.571429 -2.692308 0.000000
8.761905 -2.692308 0.000000
8.952381 -2.692308 0.000000
9.142857 -2.692308 0.000000
9.333333 -2.692308 0.000000
9.523810 -2.692308 0.000000
9.714286 -2.692308 0.000000
9.904762 -2.692308 0.000000
10.095238 -2.692308 0.000000
10.285714 -2.692308 0.000000
10.476190 -2.692308 0.000000
10.666667 -2.692308 0.000000
10.857143 -2.692308 0.000000
11.047619 -2.692308 0.000000
11.238095 -2.692308 0.000000
11.428571 -2.692308 0.000000
11.619048 -2.692308 0.000000
11.809524 -2.692308 0.000000
12.000000 -2.692308 0.000000
0.000000 -2.538462 0.000000
0.190476 -2.538462 0.000000
0.380952 -2.538462 0.000000
0.571429 -2.538462 0.000000
0.761905 -2.538462 0.000000
0.952381 -2.538462 0.000000
1.142857 -2.538462 0.000000
1.333333 -2.538462 0.000000
1.523810 -2.538462 0.000000
1.714286 -2.538462 0.000000
1.904762 -2.538462 0.000000
2.095238 -2.538462 0.000000
2.285714 -2.538462 0.000000
2.476190 -2.538462 0.000000
2.666667 -2.538462 0.000000
2.857143 -2.538462 0.000000
3.047619 -2.538462 0.000000
3.238095 -2.538462 0.000000
3.428571 -2.538462 0.000000
3.619048 -2.538462 0.000000
3.809524 -2.538462 0.000000
4.000000 -2.538462 0.000000
4.190476 -2.538462 0.000000
4.380952 -2.538462 0.000000
4.571429 -2.538462 0.000000
4.761905 -2.538462 0.000000
4.952381 -2.538462 0.000000
5.142857 -2.538462 0.000000
5.333333 -2.538462 0.000000
5.523810 -2.538462 0.000000
5.714286 -2.538462 0.000000
5.904762 -2.538462 0.000000
6.095238 -2.538462 0.000000
6.285714 -2.538462 0.000000
6.476190 -2.538462 0.000000
6.666667 -2.538462 0.000000
6.857143 -2.538462 0.000000
7.047619 -2.538462 0.000000
7.238095 -2.538462 0.000000
7.428571 -2.538462 0.000000
7.619048 -2.538462 0.000000
7.809524 -2.538462 0.000000
8.000000 -2.538462 0.000000
8.190476 -2.538462 0.000000
8.380952 -2.538462 0.000000
8.571429 -2.538462 0.000000
8.761905 -2.538462 0.000000
8.952381 -2.538462 0.000000
9.142857 -2.538462 0.000000
9.333333 -2.538462 0.000000
9.523810 -2.538462 0.000000
9.714286 -2.538462 0.000000
9.904762 -2.538462 0.000000
10.095238 -2.538462 0.000000
10.285714 -2.538462 0.000000
10.476190 -2.538462 0.000000
10.666667 -2.538462 0.000000
10.857143 -2.538462 0.000000
11.047619 -2.538462 0.000000
11.238095 -2.538462 0.000000
11.428571 -2.538462 0.000000
11.619048 -2.538462 0.000000
11.809524 -2.538462 0.000000
12.000000 -2.538462 0.000000
0.000000 -2.384615 0.000000
0.190476 -2.384615 0.000000
0.380952 -2.384615 0.000000
0.571429 -2.384615 0.000000
0.761905 -2.384615 0.000000
0.952381 -2.384615 0.000000
1.142857 -2.384615 0.000000
1.333333 -2.384615 0.000000
1.523810 -2.384615 0.000000
1.714286 -2.384615 0.000000
1.904762 -2.384615 0.000000
2.095238 -2.384615 0.000000
2.285714 -2.384615 0.000000
2.476190 -2.384615 0.000000
2.666667 -2.384615 0.000000
2.857143 -2.384615 0.000000
3.047619 -2.384615 0.000000
3.238095 -2.384615 0.000000
3.428571 -2.384615 0.000000
3.619048 -2.384615 0.000000
3.809524 -2.384615 0.000000
4.000000 -2.384615 0.000000
4.190476 -2.384615 0.000000
4.380952 -2.384615 0.000000
4.571429 -2.384615 0.000000
4.761905 -2.384615 0.000000
4.952381 -2.384615 0.000000
5.142857 -2.384615 0.000000
5.333333 -2.384615 0.000000
5.523810 -2.384615 0.000000
5.714286 -2.384615 0.000000
5.904762 -2.384615 0.000000
6.095238 -2.384615 0.000000
6.285714 -2.384615 0.000000
6.476190 -2.384615 0.000000
6.666667 -2.384615 0.000000
6.857143 -2.384615 0.000000
7.047619 -2.384615 0.000000
7.238095 -2.384615 0.000000
7.428571 -2.384615 0.000000
7.619048 -2.384615 0.000000
7.809524 -2.384615 0.000000
8.000000 -2.384615 0.000000
8.190476 -2.384615 0.000000
8.380952 -2.384615 0.000000
8.571429 -2.384615 0.000000
8.761905 -2.384615 0.000000
8.952381 -2.384615 0.000000
9.142857 -2.384615 0.000000
9.333333 -2.384615 0.000000
9.523810 -2.384615 0.000000
9.714286 -2.384615 0.000000
9.904762 -2.384615 0.000000
10.095238 -2.384615 0.000000
10.285714 -2.384615 0.000000
10.476190 -2.384615 0.000000
10.666667 -2.384615 0.000000
10.857143 -2.384615 0.000000
11.047619 -2.384615 0.000000
11.238095 -2.384615 0.000000
11.428571 -2.384615 0.000000
11.619048 -2.384615 0.000000
11.809524 -2.384615 0.000000
12.000000 -2.384615 0.000000
0.000000 -2.230769 0.000000
0.190476 -2.230769 0.000000
0.380952 -2.230769 0.000000
0.571429 -2.230769 0.000000
0.761905 -2.230769 0.000000
0.952381 -2.230769 0.000000
1.142857 -2.230769 0.000000
1.333333 -2.230769 0.000000
1.523810 -2.230769 0.000000
1.714286 -2.230769 0.000000
1.904762 -2.230769 0.000000
2.095238 -2.230769 0.000000
2.285714 -2.230769 0.000000
2.476190 -2.230769 0.000000
2.666667 -2.230769 0.000000
2.857143 -2.230769 0.000000
3.047619 -2.230769 0.000000
3.238095 -2.230769 0.000000
3.428571 -2.230769 0.000000
3.619048 -2.230769 0.000000
3.809524 -2.230769 0.000000
4.000000 -2.230769 0.000000
4.190476 -2.230769 0.000000
4.380952 -2.230769 0.000000
4.571429 -2.230769 0.000000
4.761905 -2.230769 0.000000
4.952381 -2.230769 0.000000
5.142857 -2.230769 0.000000
5.333333 -2.230769 0.000000
5.523810 -2.230769 0.000000
5.714286 -2.230769 0.000000
[...]
POINT_DATA 2560
SCALARS pressure float 1
LOOKUP_TABLE default
0.520668
0.520911
0.521187
0.521506
0.521876
0.522310
0.522819
0.523418
0.524119
0.524935
0.525877
0.526953
0.528168
0.529521
0.531009
0.532619
0.534336
0.536137
0.537993
0.539871
0.541733
0.543538
0.545246
0.546812
0.548199
0.549368
0.550289
0.550938
0.551296
0.551357
0.551121
0.550596
0.549799
0.548756
0.547497
0.546056
0.544471
0.542782
0.541026
0.539241
0.537460
0.535714
0.534028
0.532422
0.530911
0.529507
0.528213
0.527034
0.525967
0.525008
0.524153
0.523395
0.522726
0.522141
0.521632
0.521194
0.520821
0.520509
0.520253
0.520050
0.519895
0.519785
0.519714
0.519679
0.521394
0.521859
0.522408
0.523056
0.523823
0.524731
0.525803
0.527065
0.528539
0.530247
0.532207
0.534432
0.536929
0.539694
0.542717
0.545975
0.549435
0.553052
0.556772
0.560529
0.564251
0.567858
0.571270
0.574405
0.577183
0.579534
0.581396
0.582718
0.583467
0.583623
0.583185
0.582169
0.580607
0.578544
0.576038
0.573158
0.569975
0.566568
0.563014
0.559386
0.555753
0.552179
0.548717
0.545412
0.542297
0.539397
0.536729
0.534300
0.532110
0.530153
0.528420
0.526897
0.525570
0.524423
0.523439
0.522604
0.521903
0.521322
0.520849
0.520474
0.520185
0.519972
0.519826
0.519737
0.522030
0.522694
0.523483
0.524421
0.525536
0.526860
0.528425
0.530267
0.532417
0.534906
0.537759
0.540992
0.544614
0.548620
0.552994
0.557703
0.562699
0.567919
0.573283
0.578700
0.584065
0.589266
0.594185
0.598706
0.602716
0.606111
0.608801
0.610716
0.611804
0.612039
0.611418
0.609962
0.607717
0.604749
0.601140
0.596987
0.592396
0.587475
0.582337
0.577089
0.571830
0.566651
0.561630
0.556833
0.552310
0.548100
0.544225
0.540698
0.537521
0.534686
0.532179
0.529982
0.528072
0.526427
0.525021
0.523832
0.522838
0.522016
0.521349
0.520819
0.520410
0.520106
0.519894
0.519759
0.522537
0.523364
0.524348
0.525519
0.526912
0.528568
0.530526
0.532829
0.535517
0.538628
0.542192
0.546230
0.550752
0.555753
0.561211
0.567086
0.573320
0.579831
0.586524
0.593282
0.599976
0.606466
0.612606
0.618250
0.623255
0.627494
0.630853
0.633243
0.634600
0.634891
0.634114
0.632295
0.629491
0.625786
0.621282
0.616100
0.610371
0.604233
0.597823
0.591274
0.584712
0.578249
0.571982
0.565992
0.560345
0.555086
0.550246
0.545841
0.541873
0.538333
0.535203
0.532462
0.530081
0.528030
0.526280
0.524801
0.523565
0.522544
0.521716
0.521058
0.520550
0.520172
0.519906
0.519737
0.522885
0.523829
0.524950
0.526283
0.527869
0.529750
0.531975
0.534592
0.537647
0.541182
0.545233
0.549824
0.554966
0.560655
0.566865
0.573553
0.580650
0.588066
0.595690
0.603392
0.611022
0.618421
0.625422
0.631857
0.637564
0.642396
0.646222
0.648941
0.650480
0.650802
0.649903
0.647819
0.644613
0.640382
0.635244
0.629337
0.622812
0.615824
0.608529
0.601080
0.593617
0.586268
0.579142
0.572333
0.565912
0.559933
0.554429
0.549419
0.544903
0.540874
0.537311
0.534188
0.531474
0.529135
0.527137
0.525448
0.524035
0.522868
0.521921
0.521168
0.520587
0.520155
0.519854
0.519662
0.523051
0.524061
0.525254
0.526669
0.528347
0.530335
0.532685
0.535448
0.538674
0.542409
0.546692
0.551549
0.556994
0.563023
0.569609
0.576705
0.584241
0.592121
0.600226
0.608416
0.616534
0.624408
0.631859
0.638707
0.644780
0.649917
0.653982
0.656863
0.658485
0.658810
0.657835
0.655598
0.652171
0.647657
0.642185
0.635901
0.628966
0.621547
0.613808
0.605911
0.598003
0.590220
0.582676
0.575469
0.568674
0.562345
0.556519
0.551213
0.546429
0.542157
0.538375
0.535055
0.532166
0.529672
0.527538
0.525729
0.524214
0.522961
0.521943
0.521134
0.520510
0.520049
0.519730
0.519532
0.523025
0.524045
0.525242
0.526652
0.528317
0.530286
0.532610
0.535342
0.538532
0.542230
0.546475
0.551296
0.556707
0.562706
0.569269
0.576348
0.583873
0.591748
0.599855
0.608052
0.616180
0.624066
0.631529
0.638388
0.644467
0.649605
0.653664
0.656532
0.658134
0.658432
0.657428
0.655163
0.651710
0.647175
0.641687
0.635396
0.628463
0.621056
0.613339
0.605472
0.597602
0.589862
0.582366
0.575207
0.568459
0.562176
0.556390
0.551117
0.546359
0.542103
0.538330
0.535011
0.532115
0.529607
0.527455
0.525625
0.524086
0.522811
0.521773
0.520948
0.520314
0.519849
0.519533
0.519344
0.522807
0.523781
0.524912
0.526233
0.527782
0.529605
0.531753
0.534277
0.537227
0.540651
0.544590
0.549073
0.554116
0.559719
0.565860
0.572496
0.579562
0.586966
0.594596
0.602318
0.609979
0.617415
0.624453
0.630919
0.636645
0.641479
0.645288
0.647966
0.649443
0.649687
0.648704
0.646535
0.643254
0.638961
0.633780
0.627853
0.621333
0.614380
0.607148
0.599787
0.592435
0.585213
0.578226
0.571560
0.565279
0.559432
0.554046
0.549134
0.544695
0.540717
0.537180
0.534058
0.531322
0.528943
0.526890
0.525136
0.523654
0.522421
0.521414
0.520615
0.520002
0.519559
0.519265
0.519100
0.522408
0.523287
0.524287
0.525437
0.526772
0.528332
0.530164
0.532314
0.534832
0.537762
0.541144
0.545007
0.549369
0.554232
0.559580
0.565376
0.571562
0.578059
0.584764
0.591558
0.598305
0.604856
0.611056
0.616750
0.621787
0.626029
0.629358
0.631678
0.632929
0.633088
0.632168
0.630215
0.627296
0.623499
0.618933
0.613721
0.608002
0.601917
0.595605
0.589196
0.582809
0.576548
0.570503
0.564743
0.559323
0.554277
0.549628
0.545383
0.541538
0.538081
0.534994
0.532253
0.529835
0.527717
0.525875
0.524287
0.522937
0.521806
0.520879
0.520143
0.519583
0.519185
0.518932
0.518807
0.521854
0.522590
0.523403
0.524313
0.525348
0.526543
0.527936
0.529570
0.531488
0.533732
0.536339
0.539337
0.542746
0.546571
0.550802
0.555411
0.560351
0.565557
0.570946
0.576418
0.581858
0.587144
0.592145
0.596735
0.600787
0.604188
0.606834
0.608645
0.609571
0.609605
0.608777
0.607140
0.604756
0.601688
0.598017
0.593838
0.589264
0.584412
0.579399
0.574329
0.569298
0.564385
0.559657
0.555165
0.550945
0.547020
0.543401
0.540090
0.537079
0.534355
0.531903
0.529704
0.527743
0.526001
0.524467
0.523127
0.521973
0.520997
0.520193
0.519554
0.519073
0.518740
0.518544
0.518472
0.521175
0.521733
0.522313
0.522928
0.523596
0.524343
0.525202
0.526206
0.527394
0.528801
0.530462
0.532402
0.534641
0.537190
0.540047
0.543193
0.546596
0.550209
0.553969
0.557803
0.561624
0.565341
0.568857
0.572078
0.574912
0.577271
0.579073
0.580244
0.580744
0.580589
0.579849
0.578601
0.576901
0.574773
0.572245
0.569371
0.566228
0.562907
0.559496
0.556076
0.552710
0.549450
0.546337
0.543397
0.540647
0.538095
0.535739
0.533572
0.531585
0.529763
0.528094
0.526566
0.525169
0.523898
0.522748
0.521720
0.520815
0.520037
0.519389
0.518874
0.518492
0.518242
0.518116
0.518106
0.520412
0.520767
0.521084
0.521365
0.521620
0.521866
0.522125
0.522426
0.522802
0.523285
0.523896
0.524647
0.525558
0.526657
0.527956
0.529450
0.531117
0.532929
0.534849
0.536829
0.538817
0.540757
0.542590
0.544260
0.545715
0.546900
0.547745
0.548169
0.548126
0.547665
0.546940
0.546110
0.545226
0.544240
0.543085
0.541744
0.540253
0.538677
0.537084
0.535524
0.534034
0.532636
0.531338
0.530144
0.529047
0.528038
0.527101
0.526223
0.525387
0.524581
0.523796
0.523026
0.522269
0.521531
0.520820
0.520147
0.519527
0.518976
0.518508
0.518135
0.517868
0.517711
0.517665
0.517723
0.519610
0.519750
0.519788
0.519719
0.519540
0.519259
0.518893
0.518477
0.518063
0.517684
0.517290
0.516791
0.516209
0.515674
0.515274
0.515006
0.514840
0.514753
0.514729
0.514753
0.514805
0.514866
0.514917
0.514947
0.514947
0.514901
0.514743
0.514349
0.513605
0.512595
0.511668
0.511200
0.511272
0.511671
0.512138
0.512536
0.512860
0.513160
0.513496
0.513901
0.514388
0.514947
0.515559
0.516199
0.516840
0.517451
0.518007
0.518483
0.518859
0.519123
0.519269
0.519297
0.519217
0.519042
0.518795
0.518499
0.518183
0.517872
0.517595
0.517375
0.517229
0.517172
0.517208
0.517337
0.518817
0.518743
0.518506
0.518089
0.517481
0.516683
0.515726
0.514722
0.513884
0.513283
0.512460
0.510725
0.508101
0.505320
0.502882
0.500749
0.498739
0.496766
0.494815
0.492898
0.491028
0.489219
0.487493
0.485883
0.484434
0.483183
0.482075
0.480868
0.479234
0.477207
0.475538
0.475179
0.476375
0.478551
0.481003
0.483377
0.485636
0.487862
0.490137
0.492499
0.494945
0.497442
0.499943
0.502398
0.504756
0.506971
0.509003
0.510818
0.512394
0.513717
0.514785
0.515605
0.516195
0.516580
0.516793
0.516872
0.516857
0.516787
0.516701
0.516631
0.516607
0.516647
0.516766
0.516965
0.518079
0.517806
0.517313
0.516573
0.515567
0.514305
0.512913
0.511892
0.512213
0.514148
0.515383
0.512497
0.505517
0.497908
0.492024
0.487628
0.483790
0.480046
0.476300
0.472574
0.468909
0.465349
0.461946
0.458775
0.455946
0.453585
0.451698
0.449877
0.447253
0.443482
0.439962
0.439009
0.441461
0.446067
0.451130
0.455830
0.460139
0.464270
0.468395
0.472594
0.476868
0.481168
0.485426
0.489567
0.493522
0.497227
0.500630
0.503691
0.506382
0.508690
0.510615
0.512171
0.513385
0.514290
0.514933
0.515361
0.515626
0.515780
0.515871
0.515943
0.516031
0.516163
0.516357
0.516622
0.517442
0.516997
0.516282
0.515262
0.513918
0.512306
0.510906
0.511575
0.517904
0.530868
0.541802
0.537913
0.519239
0.498626
0.484764
0.476710
0.470924
0.465597
0.460293
0.455000
0.449773
0.444674
0.439774
0.435170
0.431022
0.427605
0.425186
0.423299
0.420054
0.413825
0.406687
0.403632
0.407168
0.415080
0.423729
0.431304
0.437809
0.443766
0.449563
0.455376
0.461238
0.467099
0.472876
0.478475
0.483810
0.488803
0.493392
0.497529
0.501184
0.504343
0.507010
0.509203
0.510955
0.512311
0.513324
0.514053
0.514560
0.514907
0.515151
0.515344
0.515529
0.515740
0.516000
0.516321
0.516941
0.516362
0.515474
0.514237
0.512638
0.510873
0.510334
0.516348
0.539181
0.581606
0.618783
0.614083
0.567584
0.515977
0.484086
0.469155
0.460978
0.454289
0.447754
0.441227
0.434760
0.428417
0.422255
0.416331
0.410771
0.406049
0.403143
0.402127
0.399664
0.391118
0.378446
0.370917
0.374619
0.386519
0.399888
0.411036
0.419904
0.427554
0.434760
0.441873
0.448990
0.456078
0.463045
0.469787
0.476203
0.482205
0.487723
0.492703
0.497114
0.500940
0.504187
0.506878
0.509052
0.510759
0.512061
0.513025
0.513721
0.514217
0.514580
0.514867
0.515128
0.515400
0.515712
0.516077
0.516608
0.515942
0.514939
0.513558
0.511810
0.510150
0.511663
0.528085
0.582004
0.679480
0.765793
0.760497
0.663775
0.556140
0.492184
0.465844
0.454603
0.446806
0.439433
0.432080
0.424767
0.417534
0.410370
0.403154
0.395755
0.388830
0.384811
0.385644
0.386690
0.377931
0.359014
0.344538
0.346564
0.362209
0.380934
0.396167
0.407473
0.416600
0.424871
0.432893
0.440858
0.448763
0.456522
0.464022
0.471156
0.477829
0.483964
0.489505
0.494416
0.498685
0.502316
0.505337
0.507789
0.509727
0.511219
0.512336
0.513155
0.513749
0.514188
0.514536
0.514846
0.515158
0.515504
0.515900
0.516462
0.515760
0.514709
0.513268
0.511478
0.510133
0.514467
0.544342
0.637968
0.805465
0.954013
0.948331
0.788861
0.610864
0.506833
0.466625
0.452132
0.443588
0.435828
0.428105
0.420387
0.412661
0.404764
0.396187
0.386187
0.375499
0.368869
0.371897
0.379720
0.375080
0.351902
0.329498
0.327686
0.345412
0.368786
0.387859
0.401349
0.411587
0.420497
0.428975
0.437328
0.445593
0.453696
0.461526
0.468973
0.475937
0.482341
0.488125
0.493254
0.497714
0.501511
0.504673
0.507242
0.509278
0.510848
0.512027
0.512895
0.513527
0.513996
0.514368
0.514697
0.515026
0.515387
0.515797
0.516512
0.515827
0.514797
0.513381
0.511647
0.510637
0.517167
0.557079
0.680059
0.899078
1.092698
1.086889
0.882482
0.653256
0.520102
0.470045
0.453526
0.444812
0.437153
0.429541
0.421885
0.414091
0.405765
0.395795
0.382513
0.366642
0.355779
0.360338
0.376791
0.380998
0.358329
0.329901
0.323034
0.340130
0.365766
0.387245
0.402106
0.412880
0.421917
0.430358
0.438610
0.446756
0.454736
0.462448
0.469782
0.476643
0.482950
0.488647
0.493697
0.498086
0.501820
0.504925
0.507445
0.509436
0.510968
0.512115
0.512955
0.513564
0.514014
0.514370
0.514688
0.515009
0.515364
0.515772
0.516754
0.516140
0.515198
0.513891
0.512289
0.511437
0.518155
0.558288
0.681523
0.900825
1.094724
1.089275
0.885348
0.656610
0.523968
0.474453
0.458505
0.450384
0.443327
0.436302
0.429180
0.421770
0.413411
0.402337
0.385939
0.364976
0.349628
0.354524
0.378335
0.393175
0.376324
0.346475
0.335277
0.349140
0.373636
0.395074
0.409952
0.420479
0.429070
0.436964
0.444629
0.452180
0.459578
0.466730
0.473536
0.479903
0.485756
0.491040
0.495719
0.499778
0.503223
0.506078
0.508383
0.510194
0.511574
0.512595
0.513331
0.513856
0.514239
0.514543
0.514818
0.515107
0.515437
0.515825
0.517174
0.516680
0.515889
0.514767
0.513365
0.512485
0.517372
0.547897
0.642275
0.810621
0.960095
0.955500
0.797328
0.620735
0.518201
0.479586
0.466770
0.459968
0.453978
0.447987
0.441849
0.435291
0.427446
0.416100
0.398124
0.374442
0.356571
0.360963
0.388016
0.410469
0.402031
0.375949
0.362898
0.372164
0.392441
0.411226
0.424568
0.433981
0.441540
0.448399
0.455022
0.461539
0.467929
0.474115
0.480006
0.485520
0.490588
0.495158
0.499197
0.502689
0.505637
0.508063
0.510002
0.511504
0.512627
0.513436
0.514000
0.514386
0.514659
0.514874
0.515080
0.515313
0.515601
0.515954
0.517746
0.517414
0.516827
0.515956
0.514827
0.513912
0.516311
0.533773
0.588899
0.687752
0.775620
0.772091
0.677375
0.571946
0.510372
0.486575
0.478016
0.473007
0.468468
0.463898
0.459148
0.453902
0.447233
0.436898
0.419916
0.397418
0.380431
0.384182
0.409563
0.433488
0.432039
0.412882
0.400842
0.405705
0.420140
0.434465
0.445030
0.452572
0.458582
0.463977
0.469165
0.474270
0.479288
0.484158
0.488804
0.493157
0.497156
0.500755
0.503922
0.506642
0.508916
0.510760
0.512204
0.513288
0.514065
0.514590
0.514923
0.515124
0.515248
0.515346
0.515458
0.515618
0.515846
0.516152
0.518437
0.518298
0.517956
0.517389
0.516605
0.515819
0.516443
0.523825
0.548248
0.592498
0.631746
0.629384
0.585500
0.536771
0.507999
0.496407
0.491755
0.488731
0.485927
0.483079
0.480045
0.476511
0.471654
0.463623
0.450141
0.432427
0.419403
0.422756
0.442874
0.462659
0.464515
0.452367
0.443093
0.444717
0.453376
0.462709
0.469891
0.475077
0.479155
0.482759
0.486205
0.489608
0.492972
0.496256
0.499402
0.502355
0.505065
0.507493
0.509610
0.511400
0.512863
0.514007
0.514855
0.515440
0.515802
0.515987
0.516045
0.516025
0.515973
0.515931
0.515933
0.516005
0.516161
0.516409
0.519205
0.519279
0.519207
0.518978
0.518595
0.518137
0.518109
0.520392
0.528597
0.543719
0.557106
0.555978
0.540381
0.523151
0.512961
0.508840
0.507209
0.506203
0.505306
0.504378
0.503278
0.501733
0.499126
0.494207
0.485602
0.474415
0.466708
0.469847
0.483466
0.496560
0.498542
0.491462
0.485093
0.484727
0.488745
0.493589
0.497406
0.500063
0.501999
0.503608
0.505120
0.506631
0.508159
0.509682
0.511162
0.512560
0.513838
0.514965
0.515917
0.516676
0.517239
0.517608
0.517797
0.517830
0.517734
0.517546
0.517301
0.517039
0.516794
0.516599
0.516479
0.516453
0.516531
0.516712
0.520004
0.520297
0.520506
0.520629
0.520672
0.520670
0.520776
0.521517
0.523887
0.528179
0.532096
0.532227
0.528603
0.524684
0.522804
0.522699
0.523396
0.524369
0.525442
0.526510
0.527435
0.527992
0.527776
0.526093
0.522310
0.517258
0.514351
0.517292
0.525290
0.532273
0.533044
0.528796
0.524448
0.522891
0.523613
0.524917
0.525761
0.525965
0.525722
0.525269
0.524772
0.524318
0.523938
0.523630
0.523378
0.523159
0.522949
0.522724
0.522463
0.522152
0.521780
0.521346
0.520854
0.520315
0.519748
0.519174
0.518618
0.518107
0.517665
0.517313
0.517068
0.516941
0.516936
0.517049
0.520787
0.521292
0.521775
0.522241
0.522706
0.523198
0.523775
0.524575
0.525835
0.527648
0.529571
0.530926
0.531737
0.532732
0.534390
0.536648
0.539279
0.542135
0.545123
0.548140
0.551044
0.553646
0.555691
0.556847
0.556900
0.556353
0.556755
0.559496
0.563789
0.566785
0.566432
0.563464
0.560093
0.557687
0.556163
0.554835
0.553218
0.551200
0.548887
0.546438
0.543983
0.541610
0.539364
0.537265
0.535317
0.533516
0.531848
0.530300
0.528855
0.527497
0.526213
0.524996
0.523840
0.522747
0.521722
0.520776
0.519920
0.519170
0.518537
0.518034
0.517669
0.517445
0.517359
0.517402
0.521507
0.522204
0.522935
0.523716
0.524571
0.525532
0.526643
0.527964
0.529570
0.531517
0.533767
0.536244
0.538970
0.542069
0.545613
0.549572
0.553872
0.558435
0.563171
0.567965
0.572671
0.577118
0.581119
0.584505
0.587206
0.589439
0.591723
0.594354
0.596769
0.597820
0.596877
0.594379
0.591260
0.588124
0.585029
0.581769
0.578185
0.574266
0.570108
0.565847
0.561604
0.557472
0.553513
0.549769
0.546264
0.543008
0.540002
0.537239
0.534706
0.532389
0.530271
0.528338
0.526577
0.524980
0.523541
0.522258
0.521133
0.520167
0.519364
0.518726
0.518253
0.517940
0.517779
0.517759
0.522121
0.522978
0.523919
0.524966
0.526153
0.527518
0.529108
0.530974
0.533172
0.535751
0.538746
0.542178
0.546071
0.550445
0.555298
0.560599
0.566290
0.572292
0.578504
0.584796
0.591015
0.596990
0.602554
0.607572
0.611969
0.615770
0.619037
0.621698
0.623413
0.623767
0.622628
0.620247
0.617024
0.613247
0.609021
0.604353
0.599259
0.593810
0.588125
0.582341
0.576583
0.570955
0.565539
0.560394
0.555561
0.551066
0.546920
0.543123
0.539666
0.536534
0.533710
0.531172
0.528902
0.526881
0.525096
0.523534
0.522186
0.521044
0.520102
0.519353
0.518790
0.518404
0.518180
0.518103
0.522593
0.523568
0.524666
0.525916
0.527357
0.529034
0.530997
0.533301
0.536001
0.539149
0.542789
0.546955
0.551669
0.556937
0.562743
0.569049
0.575791
0.582880
0.590205
0.597624
0.604976
0.612086
0.618780
0.624905
0.630345
0.635011
0.638808
0.641588
0.643154
0.643355
0.642188
0.639794
0.636370
0.632090
0.627079
0.621437
0.615269
0.608701
0.601875
0.594938
0.588026
0.581256
0.574723
0.568504
0.562653
0.557207
0.552187
0.547597
0.543434
0.539682
0.536320
0.533326
0.530673
0.528338
0.526298
0.524531
0.523022
0.521754
0.520712
0.519885
0.519258
0.518817
0.518544
0.518421
0.522896
0.523938
0.525131
0.526509
0.528112
0.529989
0.532194
0.534783
0.537813
0.541336
0.545398
0.550033
0.555261
0.561084
0.567483
0.574413
0.581807
0.589568
0.597575
0.605684
0.613728
0.621525
0.628892
0.635656
0.641665
0.646775
0.650849
0.653743
0.655330
0.655544
0.654399
0.651979
0.648407
0.643819
0.638350
0.632138
0.625330
0.618080
0.610548
0.602891
0.595252
0.587758
0.580517
0.573614
0.567115
0.561063
0.555486
0.550394
0.545784
0.541642
0.537947
0.534671
0.531787
0.529264
0.527075
0.525193
0.523595
0.522259
0.521166
0.520297
0.519635
0.519162
0.518859
0.518703
0.523011
0.524067
0.525287
0.526707
0.528371
0.530326
0.532628
0.535331
0.538492
0.542163
0.546387
0.551197
0.556613
0.562633
0.569236
0.576376
0.583981
0.591956
0.600176
0.608497
0.616752
0.624761
0.632337
0.639298
0.645473
0.650704
0.654843
0.657763
0.659370
0.659619
0.658519
0.656129
0.652545
0.647885
0.642286
0.635900
0.628885
0.621409
0.613637
0.605728
0.597831
0.590076
0.582576
0.575420
0.568680
0.562403
0.556621
0.551345
0.546575
0.542297
0.538490
0.535127
0.532175
0.529605
0.527384
0.525483
0.523875
0.522536
0.521442
0.520573
0.519909
0.519429
0.519113
0.518941
0.522934
0.523946
0.525124
0.526501
0.528120
0.530027
0.532274
0.534914
0.538001
0.541581
0.545698
0.550381
0.555647
0.561495
0.567901
0.574821
0.582187
0.589904
0.597854
0.605898
0.613876
0.621618
0.628944
0.635675
0.641643
0.646688
0.650674
0.653485
0.655042
0.655306
0.654284
0.652020
0.648595
0.644116
0.638715
0.632540
0.625747
0.618500
0.610960
0.603282
0.595610
0.588073
0.580778
0.573816
0.567257
0.561149
0.555524
0.550394
0.545759
0.541608
0.537919
0.534665
0.531817
0.529342
0.527209
0.525388
0.523852
0.522575
0.521533
0.520705
0.520071
0.519610
0.519303
0.519129
0.522669
0.523584
0.524651
0.525902
0.527374
0.529110
0.531156
0.533561
0.536371
0.539632
0.543379
0.547640
0.552429
0.557744
0.563565
0.569850
0.576536
0.583538
0.590750
0.598044
0.605277
0.612295
0.618936
0.625037
0.630444
0.635014
0.638622
0.641169
0.642586
0.642841
0.641934
0.639902
0.636815
0.632768
0.627878
0.622279
0.616114
0.609532
0.602681
0.595703
0.588727
0.581871
0.575235
0.568902
0.562935
0.557379
0.552262
0.547598
0.543386
0.539615
0.536266
0.533315
0.530734
0.528493
0.526564
0.524919
0.523532
0.522380
0.521441
0.520694
0.520122
0.519705
0.519425
0.519265
0.522234
0.523003
0.523898
0.524946
0.526178
0.527631
0.529343
0.531355
0.533707
0.536437
0.539575
0.543144
0.547158
0.551614
0.556495
0.561766
0.567374
0.573247
0.579295
0.585411
0.591477
0.597360
0.602926
0.608040
0.612570
0.616397
0.619418
0.621552
0.622741
0.622958
0.622203
0.620506
0.617924
0.614534
0.610436
0.605741
0.600571
0.595050
0.589303