# vtk DataFile Version 3.0
structured grid
ASCII
DATASET STRUCTURED_GRID
DIMENSIONS 64 40 1
POINTS 2560 float
0.000000 -3.000000 0.000000
0.190476 -3.000000 0.000000
0.380952 -3.000000 0.000000
0.571429 -3.000000 0.000000
0.761905 -3.000000 0.000000
0.952381 -3.000000 0.000000
1.142857 -3.000000 0.000000
1.333333 -3.000000 0.000000
1.523810 -3.000000 0.000000
1.714286 -3.000000 0.000000
1.904762 -3.000000 0.000000
2.095238 -3.000000 0.000000
2.285714 -3.000000 0.000000
2.476190 -3.000000 0.000000
2.666667 -3.000000 0.000000
2.857143 -3.000000 0.000000
3.047619 -3.000000 0.000000
3.238095 -3.000000 0.000000
3.428571 -3.000000 0.000000
3.619048 -3.000000 0.000000
3.809524 -3.000000 0.000000
4.000000 -3.000000 0.000000
4.190476 -3.000000 0.000000
4.380952 -3.000000 0.000000
4.571429 -3.000000 0.000000
4.761905 -3.000000 0.000000
4.952381 -3.000000 0.000000
5.142857 -3.000000 0.000000
5.333333 -3.000000 0.000000
5.523810 -3.000000 0.000000
5.714286 -3.000000 0.000000
5.904762 -3.000000 0.000000
6.095238 -3.000000 0.000000
6.285714 -3.000000 0.000000
6.476190 -3.000000 0.000000
6.666667 -3.000000 0.000000
6.857143 -3.000000 0.000000
7.047619 -3.000000 0.000000
7.238095 -3.000000 0.000000
7.428571 -3.000000 0.000000
7.619048 -3.000000 0.000000
7.809524 -3.000000 0.000000
8.000000 -3.000000 0.000000
8.190476 -3.000000 0.000000
8.380952 -3.000000 0.000000
8.571429 -3.000000 0.000000
8.761905 -3.000000 0.000000
8.952381 -3.000000 0.000000
9.142857 -3.000000 0.000000
9.333333 -3.000000 0.000000
9.523810 -3.000000 0.000000
9.714286 -3.000000 0.000000
9.904762 -3.000000 0.000000
10.095238 -3.000000 0.000000
10.285714 -3.000000 0.000000
10.476190 -3.000000 0.000000
10.666667 -3.000000 0.000000
10.857143 -3.000000 0.000000
11.047619 -3.000000 0.000000
11.238095 -3.000000 0.000000
11.428571 -3.000000 0.000000
11.619048 -3.000000 0.000000
11.809524 -3.000000 0.000000
12.000000 -3.000000 0.000000
0.000000 -2.846154 0.000000
0.190476 -2.846154 0.000000
0.380952 -2.846154 0.000000
0.571429 -2.846154 0.000000
0.761905 -2.846154 0.000000
0.952381 -2.846154 0.000000
1.142857 -2.846154 0.000000
1.333333 -2.846154 0.000000
1.523810 -2.846154 0.000000
1.714286 -2.846154 0.000000
1.904762 -2.846154 0.000000
2.095238 -2.846154 0.000000
2.285714 -2.846154 0.000000
2.476190 -2.846154 0.000000
2.666667 -2.846154 0.000000
2.857143 -2.846154 0.000000
3.047619 -2.846154 0.000000
3.238095 -2.846154 0.000000
3.428571 -2.846154 0.000000
3.619048 -2.846154 0.000000
3.809524 -2.846154 0.000000
4.000000 -2.846154 0.000000
4.190476 -2.846154 0.000000
4.380952 -2.846154 0.000000
4.571429 -2.846154 0.000000
4.761905 -2.846154 0.000000
4.952381 -2.846154 0.000000
5.142857 -2.846154 0.000000
5.333333 -2.846154 0.000000
5.523810 -2.846154 0.000000
5.714286 -2.846154 0.000000
5.904762 -2.846154 0.000000
6.095238 -2.846154 0.000000
6.285714 -2.846154 0.000000
6.476190 -2.846154 0.000000
6.666667 -2.846154 0.000000
6.857143 -2.846154 0.000000
7.047619 -2.846154 0.000000
7.238095 -2.846154 0.000000
7.428571 -2.846154 0.000000
7.619048 -2.846154 0.000000
7.809524 -2.846154 0.000000
8.000000 -2.846154 0.000000
8.190476 -2.846154 0.000000
8.380952 -2.846154 0.000000
8.571429 -2.846154 0.000000
8.761905 -2.846154 0.000000
8.952381 -2.846154 0.000000
9.142857 -2.846154 0.000000
9.333333 -2.846154 0.000000
9.523810 -2.846154 0.000000
9.714286 -2.846154 0.000000
9.904762 -2.846154 0.000000
10.095238 -2.846154 0.000000
10.285714 -2.846154 0.000000
10.476190 -2.846154 0.000000
10.666667 -2.846154 0.000000
10.857143 -2.846154 0.000000
11.047619 -2.846154 0.000000
11.238095 -2.846154 0.000000
11.428571 -2.846154 0.000000
11.619048 -2.846154 0.000000
11.809524 -2.846154 0.000000
12.000000 -2.846154 0.000000
0.000000 -2.692308 0.000000
0.190476 -2.692308 0.000000
0.380952 -2.692308 0.000000
0.571429 -2.692308 0.000000
0.761905 -2.692308 0.000000
0.952381 -2.692308 0.000000
1.142857 -2.692308 0.000000
1.333333 -2.692308 0.000000
1.523810 -2.692308 0.000000
1.714286 -2.692308 0.000000
1.904762 -2.692308 0.000000
2.095238 -2.692308 0.000000
2.285714 -2.692308 0.000000
2.476190 -2.692308 0.000000
2.666667 -2.692308 0.000000
2.857143 -2.692308 0.000000
3.047619 -2.692308 0.000000
3.238095 -2.692308 0.000000
3.428571 -2.692308 0.000000
3.619048 -2.692308 0.000000
3.809524 -2.692308 0.000000
4.000000 -2.692308 0.000000
4.190476 -2.692308 0.000000
4.380952 -2.692308 0.000000
4.571429 -2.692308 0.000000
4.761905 -2.692308 0.000000
4.952381 -2.692308 0.000000
5.142857 -2.692308 0.000000
5.333333 -2.692308 0.000000
5.523810 -2.692308 0.000000
5.714286 -2.692308 0.000000
5.904762 -2.692308 0.000000
6.095238 -2.692308 0.000000
6.285714 -2.692308 0.000000
6.476190 -2.692308 0.000000
6.666667 -2.692308 0.000000
6.857143 -2.692308 0.000000
7.047619 -2.692308 0.000000
7.238095 -2.692308 0.000000
7.428571 -2.692308 0.000000
7.619048 -2.692308 0.000000
7.809524 -2.692308 0.000000
8.000000 -2.692308 0.000000
8.190476 -2.692308 0.000000
8.380952 -2.692308 0.000000
8.571429 -2.692308 0.000000
8.761905 -2.692308 0.000000
8.952381 -2.692308 0.000000
9.142857 -2.692308 0.000000
9.333333 -2.692308 0.000000
9.523810 -2.692308 0.000000
9.714286 -2.692308 0.000000
9.904762 -2.692308 0.000000
10.095238 -2.692308 0.000000
10.285714 -2.692308 0.000000
10.476190 -2.692308 0.000000
10.666667 -2.692308 0.000000
10.857143 -2.692308 0.000000
11.047619 -2.692308 0.000000
11.238095 -2.692308 0.000000
11.428571 -2.692308 0.000000
11.619048 -2.692308 0.000000
11.809524 -2.692308 0.000000
12.000000 -2.692308 0.000000
0.000000 -2.538462 0.000000
0.190476 -2.538462 0.000000
0.380952 -2.538462 0.000000
0.571429 -2.538462 0.000000
0.761905 -2.538462 0.000000
0.952381 -2.538462 0.000000
1.142857 -2.538462 0.000000
1.333333 -2.538462 0.000000
1.523810 -2.538462 0.000000
1.714286 -2.538462 0.000000
1.904762 -2.538462 0.000000
2.095238 -2.538462 0.000000
2.285714 -2.538462 0.000000
2.476190 -2.538462 0.000000
2.666667 -2.538462 0.000000
2.857143 -2.538462 0.000000
3.047619 -2.538462 0.000000
3.238095 -2.538462 0.000000
3.428571 -2.538462 0.000000
3.619048 -2.538462 0.000000
3.809524 -2.538462 0.000000
4.000000 -2.538462 0.000000
4.190476 -2.538462 0.000000
4.380952 -2.538462 0.000000
4.571429 -2.538462 0.000000
4.761905 -2.538462 0.000000
4.952381 -2.538462 0.000000
5.142857 -2.538462 0.000000
5.333333 -2.538462 0.000000
5.523810 -2.538462 0.000000
5.714286 -2.538462 0.000000
5.904762 -2.538462 0.000000
6.095238 -2.538462 0.000000
6.285714 -2.538462 0.000000
6.476190 -2.538462 0.000000
6.666667 -2.538462 0.000000
6.857143 -2.538462 0.000000
7.047619 -2.538462 0.000000
7.238095 -2.538462 0.000000
7.428571 -2.538462 0.000000
7.619048 -2.538462 0.000000
7.809524 -2.538462 0.000000
8.000000 -2.538462 0.000000
8.190476 -2.538462 0.000000
8.380952 -2.538462 0.000000
8.571429 -2.538462 0.000000
8.761905 -2.538462 0.000000
8.952381 -2.538462 0.000000
9.142857 -2.538462 0.000000
9.333333 -2.538462 0.000000
9.523810 -2.538462 0.000000
9.714286 -2.538462 0.000000
9.904762 -2.538462 0.000000
10.095238 -2.538462 0.000000
10.285714 -2.538462 0.000000
10.476190 -2.538462 0.000000
10.666667 -2.538462 0.000000
10.857143 -2.538462 0.000000
11.047619 -2.538462 0.000000
11.238095 -2.538462 0.000000
11.428571 -2.538462 0.000000
11.619048 -2.538462 0.000000
11.809524 -2.538462 0.000000
12.000000 -2.538462 0.000000
0.000000 -2.384615 0.000000
0.190476 -2.384615 0.000000
0.380952 -2.384615 0.000000
0.571429 -2.384615 0.000000
0.761905 -2.384615 0.000000
0.952381 -2.384615 0.000000
1.142857 -2.384615 0.000000
1.333333 -2.384615 0.000000
1.523810 -2.384615 0.000000
1.714286 -2.384615 0.000000
1.904762 -2.384615 0.000000
2.095238 -2.384615 0.000000
2.285714 -2.384615 0.000000
2.476190 -2.384615 0.000000
2.666667 -2.384615 0.000000
2.857143 -2.384615 0.000000
3.047619 -2.384615 0.000000
3.238095 -2.384615 0.000000
3.428571 -2.384615 0.000000
3.619048 -2.384615 0.000000
3.809524 -2.384615 0.000000
4.000000 -2.384615 0.000000
4.190476 -2.384615 0.000000
4.380952 -2.384615 0.000000
4.571429 -2.384615 0.000000
4.761905 -2.384615 0.000000
4.952381 -2.384615 0.000000
5.142857 -2.384615 0.000000
5.333333 -2.384615 0.000000
5.523810 -2.384615 0.000000
5.714286 -2.384615 0.000000
5.904762 -2.384615 0.000000
6.095238 -2.384615 0.000000
6.285714 -2.384615 0.000000
6.476190 -2.384615 0.000000
6.666667 -2.384615 0.000000
6.857143 -2.384615 0.000000
7.047619 -2.384615 0.000000
7.238095 -2.384615 0.000000
7.428571 -2.384615 0.000000
7.619048 -2.384615 0.000000
7.809524 -2.384615 0.000000
8.000000 -2.384615 0.000000
8.190476 -2.384615 0.000000
8.380952 -2.384615 0.000000
8.571429 -2.384615 0.000000
8.761905 -2.384615 0.000000
8.952381 -2.384615 0.000000
9.142857 -2.384615 0.000000
9.333333 -2.384615 0.000000
9.523810 -2.384615 0.000000
9.714286 -2.384615 0.000000
9.904762 -2.384615 0.000000
10.095238 -2.384615 0.000000
10.285714 -2.384615 0.000000
10.476190 -2.384615 0.000000
10.666667 -2.384615 0.000000
10.857143 -2.384615 0.000000
11.047619 -2.384615 0.000000
11.238095 -2.384615 0.000000
11.428571 -2.384615 0.000000
11.619048 -2.384615 0.000000
11.809524 -2.384615 0.000000
12.000000 -2.384615 0.000000
0.000000 -2.230769 0.000000
0.190476 -2.230769 0.000000
0.380952 -2.230769 0.000000
0.571429 -2.230769 0.000000
0.761905 -2.230769 0.000000
0.952381 -2.230769 0.000000
1.142857 -2.230769 0.000000
1.333333 -2.230769 0.000000
1.523810 -2.230769 0.000000
1.714286 -2.230769 0.000000
1.904762 -2.230769 0.000000
2.095238 -2.230769 0.000000
2.285714 -2.230769 0.000000
2.476190 -2.230769 0.000000
2.666667 -2.230769 0.000000
2.857143 -2.230769 0.000000
3.047619 -2.230769 0.000000
3.238095 -2.230769 0.000000
3.428571 -2.230769 0.000000
3.619048 -2.230769 0.000000
3.809524 -2.230769 0.000000
4.000000 -2.230769 0.000000
4.190476 -2.230769 0.000000
4.380952 -2.230769 0.000000
4.571429 -2.230769 0.000000
4.761905 -2.230769 0.000000
4.952381 -2.230769 0.000000
5.142857 -2.230769 0.000000
5.333333 -2.230769 0.000000
5.523810 -2.230769 0.000000
5.714286 -2.230769 0.000000
[...]
POINT_DATA 2560
SCALARS pressure float 1
LOOKUP_TABLE default
0.517262
0.516622
0.515811
0.514795
0.513537
0.512000
0.510146
0.507941
0.505354
0.502358
0.498936
0.495078
0.490787
0.486077
0.480977
0.475531
0.469797
0.463849
0.457777
0.451680
0.445671
0.439868
0.434393
0.429368
0.424911
0.421130
0.418118
0.415953
0.414689
0.414360
0.414974
0.416512
0.418935
0.422176
0.426154
0.430768
0.435908
0.441455
0.447288
0.453287
0.459337
0.465333
0.471181
0.476799
0.482122
0.487097
0.491686
0.495867
0.499629
0.502971
0.505903
0.508444
0.510615
0.512446
0.513968
0.515213
0.516216
0.517010
0.517626
0.518096
0.518447
0.518706
0.518894
0.519032
0.516751
0.515997
0.515042
0.513844
0.512359
0.510544
0.508354
0.505749
0.502691
0.499149
0.495104
0.490544
0.485471
0.479903
0.473875
0.467438
0.460661
0.453633
0.446457
0.439252
0.432152
0.425294
0.418825
0.412887
0.407621
0.403152
0.399593
0.397034
0.395541
0.395152
0.395877
0.397695
0.400558
0.404389
0.409090
0.414543
0.420617
0.427172
0.434064
0.441152
0.448301
0.455386
0.462296
0.468935
0.475225
0.481104
0.486528
0.491470
0.495917
0.499868
0.503336
0.506339
0.508907
0.511072
0.512871
0.514343
0.515527
0.516463
0.517190
0.517743
0.518155
0.518458
0.518678
0.518839
0.516401
0.515586
0.514551
0.513249
0.511633
0.509654
0.507263
0.504415
0.501070
0.497194
0.492765
0.487772
0.482217
0.476121
0.469521
0.462476
0.455060
0.447371
0.439522
0.431645
0.423882
0.416387
0.409317
0.402831
0.397078
0.392197
0.388312
0.385518
0.383890
0.383468
0.384263
0.386252
0.389381
0.393567
0.398703
0.404661
0.411297
0.418458
0.425988
0.433733
0.441546
0.449290
0.456844
0.464103
0.470981
0.477412
0.483348
0.488759
0.493629
0.497958
0.501758
0.505050
0.507864
0.510235
0.512204
0.513813
0.515105
0.516123
0.516910
0.517506
0.517948
0.518270
0.518502
0.518670
0.516228
0.515408
0.514364
0.513045
0.511402
0.509383
0.506939
0.504021
0.500590
0.496610
0.492059
0.486927
0.481218
0.474954
0.468173
0.460937
0.453324
0.445433
0.437383
0.429307
0.421352
0.413674
0.406436
0.399797
0.393912
0.388922
0.384951
0.382099
0.380439
0.380013
0.380832
0.382871
0.386076
0.390362
0.395619
0.401716
0.408506
0.415835
0.423542
0.431472
0.439473
0.447407
0.455149
0.462590
0.469644
0.476241
0.482334
0.487892
0.492899
0.497352
0.501263
0.504651
0.507547
0.509985
0.512007
0.513655
0.514974
0.516008
0.516802
0.517398
0.517834
0.518147
0.518369
0.518528
0.516235
0.515470
0.514488
0.513241
0.511678
0.509747
0.507400
0.504591
0.501278
0.497431
0.493028
0.488059
0.482531
0.476467
0.469905
0.462906
0.455548
0.447927
0.440157
0.432369
0.424703
0.417310
0.410346
0.403963
0.398309
0.393518
0.389710
0.386978
0.385393
0.384994
0.385790
0.387757
0.390843
0.394966
0.400021
0.405882
0.412409
0.419455
0.426869
0.434502
0.442210
0.449858
0.457322
0.464497
0.471299
0.477663
0.483546
0.488919
0.493766
0.498083
0.501877
0.505165
0.507975
0.510337
0.512292
0.513879
0.515142
0.516124
0.516870
0.517421
0.517816
0.518092
0.518282
0.518414
0.516416
0.515763
0.514914
0.513823
0.512443
0.510724
0.508620
0.506089
0.503095
0.499608
0.495611
0.491097
0.486073
0.480563
0.474606
0.468256
0.461588
0.454690
0.447666
0.440634
0.433721
0.427064
0.420800
0.415066
0.409994
0.405703
0.402297
0.399860
0.398453
0.398111
0.398838
0.400616
0.403394
0.407100
0.411641
0.416904
0.422766
0.429099
0.435770
0.442649
0.449608
0.456520
0.463265
0.469741
0.475872
0.481608
0.486917
0.491778
0.496177
0.500105
0.503562
0.506561
0.509121
0.511270
0.513041
0.514471
0.515598
0.516464
0.517108
0.517570
0.517890
0.518101
0.518238
0.518327
0.516753
0.516263
0.515610
0.514753
0.513648
0.512252
0.510524
0.508426
0.505929
0.503008
0.499650
0.495853
0.491626
0.486991
0.481984
0.476655
0.471069
0.465302
0.459442
0.453589
0.447849
0.442334
0.437156
0.432428
0.428255
0.424734
0.421949
0.419965
0.418830
0.418571
0.419191
0.420671
0.422971
0.426032
0.429776
0.434115
0.438950
0.444185
0.449719
0.455452
0.461273
0.467060
0.472695
0.478079
0.483150
0.487881
0.492268
0.496307
0.499987
0.503292
0.506213
0.508750
0.510915
0.512726
0.514210
0.515395
0.516315
0.517004
0.517498
0.517834
0.518046
0.518169
0.518233
0.518264
0.517221
0.516936
0.516532
0.515973
0.515221
0.514240
0.512997
0.511461
0.509609
0.507426
0.504902
0.502040
0.498850
0.495355
0.491586
0.487586
0.483407
0.479110
0.474763
0.470439
0.466219
0.462184
0.458414
0.454988
0.451980
0.449456
0.447473
0.446075
0.445292
0.445141
0.445620
0.446714
0.448395
0.450618
0.453331
0.456473
0.459987
0.463816
0.467910
0.472201
0.476589
0.480947
0.485151
0.489111
0.492785
0.496176
0.499321
0.502253
0.504972
0.507454
0.509669
0.511602
0.513249
0.514619
0.515728
0.516596
0.517248
0.517711
0.518015
0.518192
0.518272
0.518285
0.518259
0.518220
0.517784
0.517735
0.517619
0.517406
0.517064
0.516567
0.515890
0.515010
0.513915
0.512594
0.511047
0.509280
0.507305
0.505145
0.502825
0.500380
0.497847
0.495268
0.492687
0.490151
0.487708
0.485401
0.483276
0.481372
0.479726
0.478369
0.477326
0.476613
0.476243
0.476217
0.476532
0.477176
0.478131
0.479374
0.480882
0.482632
0.484616
0.486839
0.489306
0.491969
0.494703
0.497360
0.499854
0.502154
0.504224
0.506051
0.507705
0.509289
0.510845
0.512341
0.513721
0.514941
0.515980
0.516833
0.517503
0.518000
0.518340
0.518541
0.518626
0.518620
0.518547
0.518435
0.518309
0.518190
0.518401
0.518608
0.518803
0.518962
0.519065
0.519092
0.519028
0.518861
0.518585
0.518201
0.517714
0.517134
0.516478
0.515765
0.515016
0.514255
0.513504
0.512786
0.512119
0.511520
0.511001
0.510569
0.510227
0.509976
0.509809
0.509720
0.509698
0.509733
0.509812
0.509926
0.510063
0.510218
0.510386
0.510566
0.510767
0.511017
0.511370
0.511909
0.512673
0.513551
0.514303
0.514809
0.515256
0.515850
0.516462
0.516823
0.516931
0.517021
0.517265
0.517661
0.518122
0.518566
0.518944
0.519235
0.519429
0.519524
0.519526
0.519443
0.519291
0.519087
0.518851
0.518605
0.518370
0.518166
0.519029
0.519496
0.520007
0.520546
0.521101
0.521662
0.522222
0.522780
0.523340
0.523910
0.524502
0.525130
0.525813
0.526569
0.527415
0.528365
0.529425
0.530597
0.531874
0.533242
0.534679
0.536154
0.537628
0.539060
0.540402
0.541608
0.542632
0.543433
0.543975
0.544233
0.544193
0.543850
0.543214
0.542311
0.541186
0.539923
0.538663
0.537549
0.536552
0.535262
0.533152
0.530427
0.528269
0.527553
0.527678
0.527405
0.526338
0.524979
0.523853
0.523097
0.522607
0.522256
0.521961
0.521680
0.521389
0.521075
0.520733
0.520362
0.519968
0.519563
0.519161
0.518779
0.518433
0.518142
0.519624
0.520341
0.521155
0.522060
0.523049
0.524121
0.525280
0.526535
0.527903
0.529400
0.531036
0.532819
0.534767
0.536912
0.539273
0.541852
0.544639
0.547615
0.550748
0.553995
0.557301
0.560599
0.563813
0.566859
0.569651
0.572103
0.574135
0.575676
0.576668
0.577070
0.576862
0.576043
0.574638
0.572695
0.570304
0.567618
0.564863
0.562181
0.559195
0.554711
0.547737
0.539646
0.534112
0.533306
0.535254
0.536326
0.535110
0.532634
0.530206
0.528318
0.526904
0.525788
0.524848
0.524020
0.523265
0.522560
0.521887
0.521239
0.520614
0.520015
0.519453
0.518939
0.518487
0.518113
0.520145
0.521087
0.522176
0.523409
0.524789
0.526321
0.528022
0.529923
0.532076
0.534512
0.537181
0.539994
0.542972
0.546243
0.549891
0.553902
0.558224
0.562807
0.567595
0.572520
0.577496
0.582425
0.587196
0.591690
0.595785
0.599361
0.602305
0.604518
0.605920
0.606457
0.606102
0.604858
0.602761
0.599885
0.596366
0.592434
0.588381
0.584189
0.578659
0.569140
0.554235
0.538045
0.528630
0.529854
0.537019
0.542288
0.542458
0.539447
0.535917
0.533001
0.530749
0.528947
0.527431
0.526114
0.524945
0.523888
0.522920
0.522022
0.521187
0.520414
0.519705
0.519071
0.518522
0.518071
0.520554
0.521686
0.523004
0.524511
0.526216
0.528133
0.530308
0.532866
0.536033
0.539892
0.543992
0.547647
0.550882
0.554423
0.558755
0.563810
0.569360
0.575255
0.581398
0.587697
0.594044
0.600313
0.606367
0.612057
0.617230
0.621739
0.625442
0.628218
0.629967
0.630622
0.630150
0.628556
0.625887
0.622242
0.617799
0.612862
0.607752
0.602089
0.593349
0.576941
0.551626
0.525862
0.513065
0.518436
0.533518
0.545183
0.547969
0.544972
0.540610
0.536849
0.533906
0.531540
0.529553
0.527835
0.526326
0.524980
0.523767
0.522662
0.521652
0.520731
0.519899
0.519163
0.518530
0.518012
0.520823
0.522098
0.523587
0.525298
0.527243
0.529460
0.532101
0.535696
0.541240
0.549029
0.556761
0.561016
0.561826
0.562655
0.565833
0.571079
0.577390
0.584210
0.591326
0.598616
0.605952
0.613192
0.620178
0.626738
0.632701
0.637895
0.642159
0.645352
0.647361
0.648108
0.647555
0.645709
0.642623
0.638414
0.633297
0.627639
0.621757
0.614831
0.602899
0.579604
0.544575
0.510859
0.496237
0.506294
0.528958
0.546542
0.551772
0.548921
0.543978
0.539613
0.536177
0.533409
0.531085
0.529080
0.527325
0.525771
0.524378
0.523120
0.521979
0.520946
0.520019
0.519203
0.518505
0.517935
0.520932
0.522294
0.523888
0.525720
0.527812
0.530259
0.533577
0.539662
0.552146
0.572038
0.590676
0.595246
0.585795
0.575195
0.572118
0.575553
0.581868
0.589139
0.596787
0.604625
0.612513
0.620297
0.627808
0.634863
0.641276
0.646864
0.651453
0.654892
0.657058
0.657864
0.657270
0.655283
0.651959
0.647420
0.641903
0.635818
0.629517
0.621971
0.608411
0.581555
0.541780
0.504710
0.489982
0.502723
0.528755
0.548459
0.554223
0.551125
0.545800
0.541113
0.537420
0.534440
0.531934
0.529774
0.527883
0.526211
0.524715
0.523367
0.522146
0.521043
0.520055
0.519186
0.518444
0.517838
0.520870
0.522261
0.523885
0.525752
0.527893
0.530550
0.535156
0.547090
0.576681
0.626757
0.672441
0.676994
0.640526
0.599849
0.579781
0.577471
0.582594
0.589754
0.597456
0.605370
0.613340
0.621210
0.628809
0.635952
0.642450
0.648116
0.652775
0.656269
0.658474
0.659302
0.658709
0.656700
0.653330
0.648710
0.643065
0.636823
0.630468
0.623314
0.611073
0.586642
0.549833
0.515196
0.501272
0.512545
0.535318
0.551638
0.555322
0.551441
0.545949
0.541251
0.537559
0.534569
0.532049
0.529873
0.527966
0.526275
0.524758
0.523388
0.522143
0.521015
0.520002
0.519110
0.518347
0.517723
0.520638
0.521997
0.523578
0.525389
0.527487
0.530372
0.537177
0.559699
0.620632
0.726148
0.821412
0.825565
0.738911
0.642365
0.590521
0.577149
0.579581
0.586023
0.593295
0.600807
0.608386
0.615880
0.623125
0.629945
0.636157
0.641581
0.646046
0.649403
0.651527
0.652335
0.651784
0.649876
0.646652
0.642195
0.636669
0.630454
0.624209
0.618132
0.609789
0.593476
0.567008
0.539902
0.526841
0.532184
0.545776
0.554516
0.554506
0.549742
0.544407
0.540023
0.536584
0.533788
0.531423
0.529373
0.527568
0.525958
0.524504
0.523180
0.521968
0.520861
0.519861
0.518976
0.518215
0.517592
0.520248
0.521517
0.522984
0.524654
0.526612
0.529691
0.539172
0.574992
0.675529
0.851170
1.008945
1.012218
0.861904
0.694361
0.601958
0.574258
0.572962
0.578164
0.584551
0.591209
0.597945
0.604623
0.611095
0.617199
0.622772
0.627647
0.631671
0.634704
0.636634
0.637385
0.636914
0.635221
0.632327
0.628261
0.623061
0.616908
0.610444
0.604779
0.600064
0.593375
0.580833
0.564608
0.553094
0.550902
0.553639
0.554372
0.551100
0.546017
0.541274
0.537511
0.534560
0.532146
0.530093
0.528303
0.526714
0.525280
0.523969
0.522756
0.521631
0.520590
0.519639
0.518790
0.518055
0.517451
0.519722
0.520849
0.522138
0.523589
0.525304
0.528359
0.539609
0.584978
0.714370
0.941250
1.144271
1.146195
0.949195
0.729095
0.606357
0.567567
0.562945
0.566628
0.571742
0.577143
0.582637
0.588107
0.593430
0.598471
0.603089
0.607145
0.610506
0.613053
0.614690
0.615349
0.614995
0.613618
0.611219
0.607749
0.603044
0.596854
0.589290
0.581665
0.576414
0.574544
0.573273
0.569016
0.562490
0.556976
0.553160
0.549383
0.544920
0.540480
0.536768
0.533882
0.531611
0.529741
0.528140
0.526728
0.525455
0.524282
0.523183
0.522141
0.521152
0.520217
0.519349
0.518562
0.517875
0.517307
0.519092
0.520032
0.521090
0.522257
0.523626
0.526264
0.537018
0.581803
0.710517
0.936623
1.138824
1.139834
0.941641
0.720291
0.596228
0.556033
0.549935
0.552086
0.555629
0.559446
0.563369
0.567311
0.571179
0.574873
0.578282
0.581299
0.583819
0.585750
0.587014
0.587557
0.587347
0.586372
0.584603
0.581909
0.577863
0.571551
0.561897
0.549303
0.537557
0.532214
0.535043
0.541430
0.545376
0.545268
0.542853
0.539690
0.536455
0.533551
0.531196
0.529366
0.527917
0.526719
0.525681
0.524743
0.523867
0.523023
0.522195
0.521373
0.520559
0.519765
0.519007
0.518305
0.517684
0.517166
0.518394
0.519116
0.519904
0.520738
0.521677
0.523532
0.531554
0.565659
0.664201
0.837558
0.992791
0.993219
0.839610
0.668452
0.572170
0.540346
0.534712
0.535406
0.537174
0.539174
0.541291
0.543475
0.545672
0.547814
0.549834
0.551656
0.553212
0.554435
0.555272
0.555681
0.555637
0.555123
0.554087
0.552319
0.549134
0.542860
0.530814
0.511601
0.489468
0.474581
0.475186
0.489457
0.507227
0.519758
0.525466
0.526928
0.526601
0.525758
0.524919
0.524237
0.523703
0.523262
0.522864
0.522467
0.522046
0.521580
0.521063
0.520496
0.519889
0.519260
0.518633
0.518035
0.517494
0.517038
0.517672
0.518156
0.518651
0.519124
0.519593
0.520520
0.524993
0.544770
0.602512
0.704365
0.795488
0.794997
0.703146
0.600879
0.542852
0.522888
0.518379
0.517606
0.517486
0.517541
0.517727
0.518030
0.518436
0.518921
0.519453
0.520000
0.520525
0.520994
0.521375
0.521643
0.521778
0.521757
0.521513
0.520785
0.518709
0.513009
0.499527
0.474837
0.442888
0.417542
0.413254
0.432279
0.462684
0.489354
0.505543
0.513167
0.516314
0.517636
0.518319
0.518804
0.519220
0.519579
0.519859
0.520038
0.520101
0.520040
0.519858
0.519565
0.519182
0.518734
0.518251
0.517768
0.517318
0.516931
0.516970
0.517212
0.517407
0.517515
0.517517
0.517598
0.519139
0.527466
0.552861
0.598116
0.638328
0.636740
0.593445
0.545271
0.517090
0.506117
0.502109
0.499775
0.497749
0.495851
0.494095
0.492508
0.491115
0.489932
0.488971
0.488237
0.487729
0.487443
0.487368
0.487495
0.487809
0.488285
0.488846
0.489216
0.488486
0.484156
0.471278
0.444886
0.407887
0.375723
0.366956
0.387531
0.425687
0.462590
0.487254
0.500204
0.506429
0.509695
0.511785
0.513389
0.514738
0.515890
0.516848
0.517602
0.518150
0.518495
0.518650
0.518636
0.518480
0.518218
0.517886
0.517523
0.517167
0.516854
0.516333
0.516341
0.516249
0.516009
0.515578
0.514988
0.514692
0.516526
0.524062
0.538267
0.550444
0.547758
0.530252
0.510817
0.498175
0.491390
0.486929
0.482993
0.479158
0.475415
0.471824
0.468451
0.465358
0.462601
0.460231
0.458288
0.456805
0.455806
0.455302
0.455296
0.455779
0.456724
0.458052
0.459504
0.460259
0.458017
0.447985
0.424662
0.389414
0.356562
0.345605
0.364878
0.404334
0.444743
0.473307
0.489287
0.497608
0.502397
0.505697
0.508313
0.510526
0.512419
0.514011
0.515306
0.516311
0.517039
0.517513
0.517764
0.517828
0.517745
0.517559
0.517315
0.517053
0.516814
0.515803
0.515598
0.515248
0.514696
0.513888
0.512791
0.511488
0.510441
0.510585
0.512165
0.512839
0.509167
0.501178
0.492359
0.485090
0.479169
0.473704
0.468275
0.462839
0.457471
0.452265
0.447318
0.442727
0.438583
0.434970
0.431962
0.429621
0.427994
0.427112
0.426989
0.427620
0.428978
0.430985
0.433419
0.435624
0.435791
0.430039
0.413433
0.385911
0.358510
0.348424
0.364598
0.399682
0.437021
0.464624
0.481048
0.490330
0.496150
0.500408
0.503877
0.506836
0.509375
0.511522
0.513289
0.514693
0.515759
0.516517
0.517004
0.517265
0.517346
0.517294
0.517160
0.516986
0.516816
0.515414
0.515032
0.514467
0.513659
0.512545
0.511071
0.509209
0.507017
0.504656
0.502158
0.499031
0.494567
0.488789
0.482447
0.476075
0.469688
0.463168
0.456508
0.449786
0.443113
0.436608
0.430395
0.424598
0.419336
0.414722
0.410855
0.407821
0.405686
0.404498
0.404279
0.405029
0.406718
0.409273
0.412513
0.415957
0.418358
0.417037
0.408340
0.391437
0.373353
0.366786
0.379528
0.407110
0.437262
0.460616
0.475582
0.484898
0.491286
0.496226
0.500349
0.503893
0.506943
0.509529
0.511672
0.513396
0.514733
0.515720
0.516402
0.516827
0.517045
0.517110
0.517070
0.516975
0.516867
0.515194
0.514679
0.513956
0.512960
0.511627
0.509895
0.507709
0.505037
0.501868
0.498183
0.493892
0.488884
0.483179
0.476928
0.470261
0.463243
0.455929
0.448410
0.440796
0.433217
0.425809
0.418714
0.412075
0.406032
0.400716
0.396246
0.392724
0.390233
0.388827
0.388538
0.389368
0.391286
0.394225
0.398036
0.402384
0.406484
0.408722
0.406815
0.399864
0.391566
0.389715
0.399844
0.419779
0.441889
0.459982
0.472678
0.481475
0.488053
0.493392
0.497939
0.501875
0.505269
0.508153
0.510552
0.512496
0.514022
0.515172
0.515995
0.516541
0.516865
0.517019
0.517056
0.517025
0.516967
0.515162
0.514566
0.513747
0.512643
0.511189
0.509320
0.506978
0.504112
0.500685
0.496665
0.492029
0.486762
0.480882
0.474439
0.467497
0.460129
0.452420
0.444477
0.436423
0.428393
0.420533
0.412992
0.405925
0.399482
0.393805
0.389023
0.385248
0.382568
0.381046
0.380715
0.381581
0.383614
0.386749
0.390863
0.395723
0.400852
0.405360
0.408004
0.408140
0.407395
0.409743
0.418381
0.432491
0.448071
0.461612
0.472094
0.480139
0.486611
0.492069
0.496793
0.500905
0.504457
0.507479
0.509999
0.512049
0.513670
0.514907
0.515808
0.516427
0.516817
0.517032
0.517123
0.517138
0.517118
0.515325
0.514702
0.513858
0.512731
0.511258
0.509379
0.507034
0.504172
0.500753
0.496744
0.492129
0.486905
0.481087
0.474712
0.467831
0.460517
0.452858
0.444960
0.436944
0.428946
0.421110
0.413587
0.406532
0.400094
0.394416
0.389630
0.385847
0.383157
0.381624
0.381283
0.382138
0.384163
0.387296
0.391435
0.396409
0.401922
0.407494
0.412491
0.416530
0.420203
0.425209
0.433055
0.443501
0.454740
0.465026
0.473697
0.480910
0.487031
0.492337
0.496983
0.501044
0.504556
0.507547
0.510044
0.512081
0.513698
0.514940
0.515854
0.516493
0.516909
0.517152
0.517271
0.517313
0.517317
0.515679
0.515085
0.514284
0.513220
0.511833
0.510068
0.507869
0.505190
0.501991
0.498242
0.493928
0.489047
0.483613
0.477656
0.471226
0.464389
0.457227
0.449839
0.442339
0.434854
0.427519
0.420476
0.413868
0.407838
0.402520
0.398035
0.394489
0.391967
0.390529
0.390207
0.391005
0.392900
0.395836
0.399727
0.404442
0.409788
0.415488
0.421212
0.426733
0.432206
0.438235
0.445402
0.453628
0.462172
0.470239
0.477438
0.483748
0.489290
0.494182
0.498500
0.502285
0.505563
0.508355
0.510687
0.512591
0.514105
0.515270
0.516132
0.516738
0.517137
0.517375
0.517498
0.517547
0.517559
0.516208
0.515697
0.515005
0.514083
0.512880
0.511346
0.509434
0.507101
0.504314
0.501046
0.497285
0.493028
0.488287
0.483092
0.477483
0.471519
0.465273
0.458832
0.452296
0.445774
0.439385
0.433253
0.427504
0.422258
0.417635
0.413738
0.410659
0.408471
0.407226
0.406950
0.407649
0.409299
0.411856
0.415247
0.419373
0.424099
0.429255
0.434648
0.440130
0.445699
0.451515
0.457750
0.464350
0.471011
0.477379
0.483238
0.488527
0.493268
0.497501
0.501258
0.504558
0.507418
0.509853
0.511887
0.513547
0.514865
0.515878
0.516625
0.517149
0.517491
0.517693
0.517794
0.517832
0.517838
0.516888
0.516505
0.515980
0.515271
0.514337
0.513137
0.511632
0.509790
0.507581
0.504986
0.501994
0.498605
0.494831
0.490694
0.486230
0.481486
0.476522
0.471408
0.466224
0.461059
0.456005
0.451161
0.446625
0.442494
0.438857
0.435797
0.433385
0.431676
0.430708
0.430504
0.431065
0.432372
0.434390
0.437065
0.440324
0.444075
0.448207
0.452601
0.457157
0.461826
0.466623
0.471567
0.476609
0.481613
0.486416
0.490900
0.495013
0.498745
0.502103
0.505095
0.507729
0.510011
0.511954
0.513574
0.514892
0.515933
0.516727
0.517306
0.517703
0.517953
0.518091
0.518149
0.518158
0.518146
0.517684
0.517467
0.517154
0.516715
0.516118
0.515334
0.514334
0.513094
0.511594
0.509823
0.507773
0.505446
0.502853
0.500011
0.496947
0.493698
0.490305
0.486820
0.483297
0.479798
0.476387
0.473129
0.470089
0.467331
0.464913
0.462888
0.461300
0.460184
0.459563
0.459449
0.459841
0.460727
0.462082
0.463871
0.466048
0.468557
0.471332
0.474306
0.477415
0.480618
0.483894
0.487228
0.490583
0.493891
0.497078
0.500080
0.502864
0.505412
0.507721
0.509786
0.511608
0.513188
0.514531
0.515645
0.516545
0.517245
0.517768
0.518134
0.518370
0.518500
0.518551
0.518548
0.518514
0.518471
0.518553
0.518529
0.518461
0.518330
0.518118
0.517805
0.517374
0.516814
0.516114
0.515268
0.514275
0.513141
0.511873
0.510485
0.508996
0.507426
0.505800
0.504147
0.502494
0.500873
0.499312
0.497842
0.496490
0.495282
0.494240
0.493383
0.492726
0.492280
0.492051
0.492040
0.492244
0.492656
0.493263
0.494051
0.495002
0.496094
0.497303
0.498604
0.499973