# vtk DataFile Version 3.0
structured grid
ASCII
DATASET STRUCTURED_GRID
DIMENSIONS 64 40 1
POINTS 2560 float
0.000000 -3.000000 0.000000
0.190476 -3.000000 0.000000
0.380952 -3.000000 0.000000
0.571429 -3.000000 0.000000
0.761905 -3.000000 0.000000
0.952381 -3.000000 0.000000
1.142857 -3.000000 0.000000
1.333333 -3.000000 0.000000
1.523810 -3.000000 0.000000
1.714286 -3.000000 0.000000
1.904762 -3.000000 0.000000
2.095238 -3.000000 0.000000
2.285714 -3.000000 0.000000
2.476190 -3.000000 0.000000
2.666667 -3.000000 0.000000
2.857143 -3.000000 0.000000
3.047619 -3.000000 0.000000
3.238095 -3.000000 0.000000
3.428571 -3.000000 0.000000
3.619048 -3.000000 0.000000
3.809524 -3.000000 0.000000
4.000000 -3.000000 0.000000
4.190476 -3.000000 0.000000
4.380952 -3.000000 0.000000
4.571429 -3.000000 0.000000
4.761905 -3.000000 0.000000
4.952381 -3.000000 0.000000
5.142857 -3.000000 0.000000
5.333333 -3.000000 0.000000
5.523810 -3.000000 0.000000
5.714286 -3.000000 0.000000
5.904762 -3.000000 0.000000
6.095238 -3.000000 0.000000
6.285714 -3.000000 0.000000
6.476190 -3.000000 0.000000
6.666667 -3.000000 0.000000
6.857143 -3.000000 0.000000
7.047619 -3.000000 0.000000
7.238095 -3.000000 0.000000
7.428571 -3.000000 0.000000
7.619048 -3.000000 0.000000
7.809524 -3.000000 0.000000
8.000000 -3.000000 0.000000
8.190476 -3.000000 0.000000
8.380952 -3.000000 0.000000
8.571429 -3.000000 0.000000
8.761905 -3.000000 0.000000
8.952381 -3.000000 0.000000
9.142857 -3.000000 0.000000
9.333333 -3.000000 0.000000
9.523810 -3.000000 0.000000
9.714286 -3.000000 0.000000
9.904762 -3.000000 0.000000
10.095238 -3.000000 0.000000
10.285714 -3.000000 0.000000
10.476190 -3.000000 0.000000
10.666667 -3.000000 0.000000
10.857143 -3.000000 0.000000
11.047619 -3.000000 0.000000
11.238095 -3.000000 0.000000
11.428571 -3.000000 0.000000
11.619048 -3.000000 0.000000
11.809524 -3.000000 0.000000
12.000000 -3.000000 0.000000
0.000000 -2.846154 0.000000
0.190476 -2.846154 0.000000
0.380952 -2.846154 0.000000
0.571429 -2.846154 0.000000
0.761905 -2.846154 0.000000
0.952381 -2.846154 0.000000
1.142857 -2.846154 0.000000
1.333333 -2.846154 0.000000
1.523810 -2.846154 0.000000
1.714286 -2.846154 0.000000
1.904762 -2.846154 0.000000
2.095238 -2.846154 0.000000
2.285714 -2.846154 0.000000
2.476190 -2.846154 0.000000
2.666667 -2.846154 0.000000
2.857143 -2.846154 0.000000
3.047619 -2.846154 0.000000
3.238095 -2.846154 0.000000
3.428571 -2.846154 0.000000
3.619048 -2.846154 0.000000
3.809524 -2.846154 0.000000
4.000000 -2.846154 0.000000
4.190476 -2.846154 0.000000
4.380952 -2.846154 0.000000
4.571429 -2.846154 0.000000
4.761905 -2.846154 0.000000
4.952381 -2.846154 0.000000
5.142857 -2.846154 0.000000
5.333333 -2.846154 0.000000
5.523810 -2.846154 0.000000
5.714286 -2.846154 0.000000
5.904762 -2.846154 0.000000
6.095238 -2.846154 0.000000
6.285714 -2.846154 0.000000
6.476190 -2.846154 0.000000
6.666667 -2.846154 0.000000
6.857143 -2.846154 0.000000
7.047619 -2.846154 0.000000
7.238095 -2.846154 0.000000
7.428571 -2.846154 0.000000
7.619048 -2.846154 0.000000
7.809524 -2.846154 0.000000
8.000000 -2.846154 0.000000
8.190476 -2.846154 0.000000
8.380952 -2.846154 0.000000
8.571429 -2.846154 0.000000
8.761905 -2.846154 0.000000
8.952381 -2.846154 0.000000
9.142857 -2.846154 0.000000
9.333333 -2.846154 0.000000
9.523810 -2.846154 0.000000
9.714286 -2.846154 0.000000
9.904762 -2.846154 0.000000
10.095238 -2.846154 0.000000
10.285714 -2.846154 0.000000
10.476190 -2.846154 0.000000
10.666667 -2.846154 0.000000
10.857143 -2.846154 0.000000
11.047619 -2.846154 0.000000
11.238095 -2.846154 0.000000
11.428571 -2.846154 0.000000
11.619048 -2.846154 0.000000
11.809524 -2.846154 0.000000
12.000000 -2.846154 0.000000
0.000000 -2.692308 0.000000
0.190476 -2.692308 0.000000
0.380952 -2.692308 0.000000
0.571429 -2.692308 0.000000
0.761905 -2.692308 0.000000
0.952381 -2.692308 0.000000
1.142857 -2.692308 0.000000
1.333333 -2.692308 0.000000
1.523810 -2.692308 0.000000
1.714286 -2.692308 0.000000
1.904762 -2.692308 0.000000
2.095238 -2.692308 0.000000
2.285714 -2.692308 0.000000
2.476190 -2.692308 0.000000
2.666667 -2.692308 0.000000
2.857143 -2.692308 0.000000
3.047619 -2.692308 0.000000
3.238095 -2.692308 0.000000
3.428571 -2.692308 0.000000
3.619048 -2.692308 0.000000
3.809524 -2.692308 0.000000
4.000000 -2.692308 0.000000
4.190476 -2.692308 0.000000
4.380952 -2.692308 0.000000
4.571429 -2.692308 0.000000
4.761905 -2.692308 0.000000
4.952381 -2.692308 0.000000
5.142857 -2.692308 0.000000
5.333333 -2.692308 0.000000
5.523810 -2.692308 0.000000
5.714286 -2.692308 0.000000
5.904762 -2.692308 0.000000
6.095238 -2.692308 0.000000
6.285714 -2.692308 0.000000
6.476190 -2.692308 0.000000
6.666667 -2.692308 0.000000
6.857143 -2.692308 0.000000
7.047619 -2.692308 0.000000
7.238095 -2.692308 0.000000
7.428571 -2.692308 0.000000
7.619048 -2.692308 0.000000
7.809524 -2.692308 0.000000
8.000000 -2.692308 0.000000
8.190476 -2.692308 0.000000
8.380952 -2.692308 0.000000
8.571429 -2.692308 0.000000
8.761905 -2.692308 0.000000
8.952381 -2.692308 0.000000
9.142857 -2.692308 0.000000
9.333333 -2.692308 0.000000
9.523810 -2.692308 0.000000
9.714286 -2.692308 0.000000
9.904762 -2.692308 0.000000
10.095238 -2.692308 0.000000
10.285714 -2.692308 0.000000
10.476190 -2.692308 0.000000
10.666667 -2.692308 0.000000
10.857143 -2.692308 0.000000
11.047619 -2.692308 0.000000
11.238095 -2.692308 0.000000
11.428571 -2.692308 0.000000
11.619048 -2.692308 0.000000
11.809524 -2.692308 0.000000
12.000000 -2.692308 0.000000
0.000000 -2.538462 0.000000
0.190476 -2.538462 0.000000
0.380952 -2.538462 0.000000
0.571429 -2.538462 0.000000
0.761905 -2.538462 0.000000
0.952381 -2.538462 0.000000
1.142857 -2.538462 0.000000
1.333333 -2.538462 0.000000
1.523810 -2.538462 0.000000
1.714286 -2.538462 0.000000
1.904762 -2.538462 0.000000
2.095238 -2.538462 0.000000
2.285714 -2.538462 0.000000
2.476190 -2.538462 0.000000
2.666667 -2.538462 0.000000
2.857143 -2.538462 0.000000
3.047619 -2.538462 0.000000
3.238095 -2.538462 0.000000
3.428571 -2.538462 0.000000
3.619048 -2.538462 0.000000
3.809524 -2.538462 0.000000
4.000000 -2.538462 0.000000
4.190476 -2.538462 0.000000
4.380952 -2.538462 0.000000
4.571429 -2.538462 0.000000
4.761905 -2.538462 0.000000
4.952381 -2.538462 0.000000
5.142857 -2.538462 0.000000
5.333333 -2.538462 0.000000
5.523810 -2.538462 0.000000
5.714286 -2.538462 0.000000
5.904762 -2.538462 0.000000
6.095238 -2.538462 0.000000
6.285714 -2.538462 0.000000
6.476190 -2.538462 0.000000
6.666667 -2.538462 0.000000
6.857143 -2.538462 0.000000
7.047619 -2.538462 0.000000
7.238095 -2.538462 0.000000
7.428571 -2.538462 0.000000
7.619048 -2.538462 0.000000
7.809524 -2.538462 0.000000
8.000000 -2.538462 0.000000
8.190476 -2.538462 0.000000
8.380952 -2.538462 0.000000
8.571429 -2.538462 0.000000
8.761905 -2.538462 0.000000
8.952381 -2.538462 0.000000
9.142857 -2.538462 0.000000
9.333333 -2.538462 0.000000
9.523810 -2.538462 0.000000
9.714286 -2.538462 0.000000
9.904762 -2.538462 0.000000
10.095238 -2.538462 0.000000
10.285714 -2.538462 0.000000
10.476190 -2.538462 0.000000
10.666667 -2.538462 0.000000
10.857143 -2.538462 0.000000
11.047619 -2.538462 0.000000
11.238095 -2.538462 0.000000
11.428571 -2.538462 0.000000
11.619048 -2.538462 0.000000
11.809524 -2.538462 0.000000
12.000000 -2.538462 0.000000
0.000000 -2.384615 0.000000
0.190476 -2.384615 0.000000
0.380952 -2.384615 0.000000
0.571429 -2.384615 0.000000
0.761905 -2.384615 0.000000
0.952381 -2.384615 0.000000
1.142857 -2.384615 0.000000
1.333333 -2.384615 0.000000
1.523810 -2.384615 0.000000
1.714286 -2.384615 0.000000
1.904762 -2.384615 0.000000
2.095238 -2.384615 0.000000
2.285714 -2.384615 0.000000
2.476190 -2.384615 0.000000
2.666667 -2.384615 0.000000
2.857143 -2.384615 0.000000
3.047619 -2.384615 0.000000
3.238095 -2.384615 0.000000
3.428571 -2.384615 0.000000
3.619048 -2.384615 0.000000
3.809524 -2.384615 0.000000
4.000000 -2.384615 0.000000
4.190476 -2.384615 0.000000
4.380952 -2.384615 0.000000
4.571429 -2.384615 0.000000
4.761905 -2.384615 0.000000
4.952381 -2.384615 0.000000
5.142857 -2.384615 0.000000
5.333333 -2.384615 0.000000
5.523810 -2.384615 0.000000
5.714286 -2.384615 0.000000
5.904762 -2.384615 0.000000
6.095238 -2.384615 0.000000
6.285714 -2.384615 0.000000
6.476190 -2.384615 0.000000
6.666667 -2.384615 0.000000
6.857143 -2.384615 0.000000
7.047619 -2.384615 0.000000
7.238095 -2.384615 0.000000
7.428571 -2.384615 0.000000
7.619048 -2.384615 0.000000
7.809524 -2.384615 0.000000
8.000000 -2.384615 0.000000
8.190476 -2.384615 0.000000
8.380952 -2.384615 0.000000
8.571429 -2.384615 0.000000
8.761905 -2.384615 0.000000
8.952381 -2.384615 0.000000
9.142857 -2.384615 0.000000
9.333333 -2.384615 0.000000
9.523810 -2.384615 0.000000
9.714286 -2.384615 0.000000
9.904762 -2.384615 0.000000
10.095238 -2.384615 0.000000
10.285714 -2.384615 0.000000
10.476190 -2.384615 0.000000
10.666667 -2.384615 0.000000
10.857143 -2.384615 0.000000
11.047619 -2.384615 0.000000
11.238095 -2.384615 0.000000
11.428571 -2.384615 0.000000
11.619048 -2.384615 0.000000
11.809524 -2.384615 0.000000
12.000000 -2.384615 0.000000
0.000000 -2.230769 0.000000
0.190476 -2.230769 0.000000
0.380952 -2.230769 0.000000
0.571429 -2.230769 0.000000
0.761905 -2.230769 0.000000
0.952381 -2.230769 0.000000
1.142857 -2.230769 0.000000
1.333333 -2.230769 0.000000
1.523810 -2.230769 0.000000
1.714286 -2.230769 0.000000
1.904762 -2.230769 0.000000
2.095238 -2.230769 0.000000
2.285714 -2.230769 0.000000
2.476190 -2.230769 0.000000
2.666667 -2.230769 0.000000
2.857143 -2.230769 0.000000
3.047619 -2.230769 0.000000
3.238095 -2.230769 0.000000
3.428571 -2.230769 0.000000
3.619048 -2.230769 0.000000
3.809524 -2.230769 0.000000
4.000000 -2.230769 0.000000
4.190476 -2.230769 0.000000
4.380952 -2.230769 0.000000
4.571429 -2.230769 0.000000
4.761905 -2.230769 0.000000
4.952381 -2.230769 0.000000
5.142857 -2.230769 0.000000
5.333333 -2.230769 0.000000
5.523810 -2.230769 0.000000
5.714286 -2.230769 0.000000
[...]
POINT_DATA 2560
SCALARS pressure float 1
LOOKUP_TABLE default
0.519235
0.519056
0.518810
0.518487
0.518076
0.517569
0.516959
0.516240
0.515407
0.514456
0.513387
0.512199
0.510897
0.509487
0.507977
0.506379
0.504710
0.502989
0.501238
0.499484
0.497755
0.496083
0.494501
0.493041
0.491736
0.490617
0.489711
0.489041
0.488627
0.488480
0.488606
0.489004
0.489665
0.490575
0.491713
0.493053
0.494563
0.496210
0.497959
0.499773
0.501617
0.503454
0.505255
0.506991
0.508636
0.510172
0.511583
0.512859
0.513994
0.514988
0.515842
0.516564
0.517164
0.517652
0.518042
0.518349
0.518587
0.518770
0.518912
0.519025
0.519119
0.519202
0.519281
0.519360
0.518488
0.518101
0.517590
0.516935
0.516119
0.515122
0.513926
0.512518
0.510882
0.509010
0.506894
0.504532
0.501929
0.499093
0.496042
0.492799
0.489396
0.485875
0.482284
0.478678
0.475120
0.471676
0.468418
0.465415
0.462736
0.460447
0.458604
0.457256
0.456439
0.456176
0.456477
0.457335
0.458731
0.460631
0.462987
0.465743
0.468835
0.472192
0.475739
0.479404
0.483114
0.486802
0.490405
0.493870
0.497150
0.500210
0.503022
0.505569
0.507843
0.509842
0.511574
0.513053
0.514295
0.515324
0.516163
0.516837
0.517374
0.517798
0.518131
0.518397
0.518611
0.518791
0.518947
0.519089
0.517827
0.517258
0.516514
0.515568
0.514393
0.512962
0.511248
0.509228
0.506883
0.504195
0.501154
0.497756
0.494004
0.489912
0.485502
0.480811
0.475883
0.470779
0.465568
0.460334
0.455167
0.450166
0.445433
0.441073
0.437186
0.433866
0.431199
0.429252
0.428079
0.427713
0.428166
0.429428
0.431468
0.434236
0.437663
0.441666
0.446149
0.451010
0.456142
0.461438
0.466793
0.472112
0.477305
0.482296
0.487020
0.491425
0.495474
0.499144
0.502422
0.505308
0.507814
0.509957
0.511765
0.513267
0.514497
0.515493
0.516289
0.516920
0.517419
0.517816
0.518135
0.518399
0.518624
0.518823
0.517292
0.516578
0.515648
0.514468
0.513003
0.511219
0.509084
0.506568
0.503646
0.500297
0.496507
0.492271
0.487592
0.482488
0.476986
0.471130
0.464977
0.458602
0.452093
0.445553
0.439096
0.432845
0.426931
0.421481
0.416624
0.412478
0.409147
0.406718
0.405257
0.404805
0.405377
0.406960
0.409515
0.412979
0.417264
0.422266
0.427866
0.433936
0.440341
0.446949
0.453631
0.460264
0.466740
0.472963
0.478852
0.484344
0.489393
0.493969
0.498058
0.501660
0.504788
0.507465
0.509724
0.511603
0.513144
0.514392
0.515391
0.516184
0.516811
0.517310
0.517711
0.518041
0.518321
0.518568
0.516912
0.516102
0.515045
0.513701
0.512031
0.509997
0.507562
0.504694
0.501362
0.497545
0.493227
0.488401
0.483073
0.477260
0.470997
0.464330
0.457327
0.450072
0.442664
0.435220
0.427871
0.420756
0.414024
0.407821
0.402291
0.397571
0.393778
0.391012
0.389348
0.388833
0.389483
0.391284
0.394192
0.398134
0.403011
0.408704
0.415079
0.421988
0.429281
0.436805
0.444412
0.451966
0.459341
0.466428
0.473136
0.479392
0.485144
0.490357
0.495015
0.499117
0.502679
0.505726
0.508296
0.510432
0.512182
0.513597
0.514729
0.515627
0.516337
0.516901
0.517355
0.517730
0.518049
0.518332
0.516712
0.515859
0.514740
0.513313
0.511536
0.509369
0.506774
0.503716
0.500166
0.496100
0.491504
0.486371
0.480708
0.474534
0.467885
0.460812
0.453385
0.445693
0.437841
0.429952
0.422163
0.414624
0.407488
0.400912
0.395050
0.390043
0.386018
0.383081
0.381310
0.380757
0.381438
0.383340
0.386416
0.390589
0.395756
0.401790
0.408549
0.415879
0.423619
0.431607
0.439687
0.447712
0.455549
0.463082
0.470213
0.476865
0.482981
0.488524
0.493475
0.497833
0.501613
0.504844
0.507564
0.509820
0.511665
0.513152
0.514339
0.515277
0.516018
0.516606
0.517081
0.517475
0.517815
0.518120
0.516700
0.515862
0.514752
0.513327
0.511547
0.509371
0.506762
0.503689
0.500123
0.496043
0.491434
0.486295
0.480631
0.474464
0.467828
0.460777
0.453378
0.445720
0.437906
0.430058
0.422311
0.414813
0.407714
0.401172
0.395336
0.390349
0.386336
0.383402
0.381628
0.381062
0.381725
0.383603
0.386650
0.390792
0.395926
0.401929
0.408660
0.415966
0.423688
0.431664
0.439737
0.447758
0.455593
0.463125
0.470258
0.476913
0.483034
0.488579
0.493531
0.497885
0.501656
0.504872
0.507572
0.509804
0.511621
0.513080
0.514237
0.515148
0.515864
0.516433
0.516895
0.517283
0.517623
0.517936
0.516879
0.516112
0.515080
0.513743
0.512062
0.510001
0.507528
0.504612
0.501232
0.497369
0.493015
0.488167
0.482835
0.477041
0.470817
0.464214
0.457295
0.450140
0.442846
0.435524
0.428300
0.421307
0.414686
0.408581
0.403132
0.398470
0.394712
0.391957
0.390280
0.389728
0.390322
0.392051
0.394873
0.398720
0.403501
0.409101
0.415393
0.422236
0.429481
0.436976
0.444568
0.452112
0.459480
0.466563
0.473272
0.479535
0.485298
0.490520
0.495179
0.499270
0.502804
0.505808
0.508319
0.510383
0.512051
0.513379
0.514424
0.515240
0.515877
0.516384
0.516798
0.517154
0.517476
0.517782
0.517234
0.516592
0.515705
0.514536
0.513051
0.511222
0.509020
0.506425
0.503420
0.499993
0.496141
0.491865
0.487177
0.482098
0.476659
0.470903
0.464885
0.458675
0.452352
0.446012
0.439760
0.433709
0.427978
0.422691
0.417966
0.413915
0.410641
0.408228
0.406744
0.406230
0.406707
0.408167
0.410578
0.413883
0.418007
0.422858
0.428330
0.434307
0.440661
0.447251
0.453929
0.460556
0.467014
0.473214
0.479088
0.484579
0.489639
0.494228
0.498319
0.501904
0.504988
0.507595
0.509758
0.511518
0.512924
0.514028
0.514883
0.515540
0.516048
0.516452
0.516788
0.517086
0.517371
0.517656
0.517745
0.517274
0.516588
0.515656
0.514453
0.512957
0.511149
0.509016
0.506551
0.503750
0.500616
0.497156
0.493384
0.489319
0.484989
0.480428
0.475680
0.470797
0.465840
0.460879
0.455992
0.451265
0.446786
0.442649
0.438943
0.435754
0.433163
0.431235
0.430026
0.429570
0.429886
0.430972
0.432806
0.435349
0.438549
0.442348
0.446678
0.451462
0.456595
0.461939
0.467342
0.472666
0.477814
0.482731
0.487387
0.491755
0.495800
0.499481
0.502763
0.505628
0.508077
0.510125
0.511801
0.513140
0.514185
0.514982
0.515579
0.516023
0.516358
0.516624
0.516854
0.517075
0.517306
0.517558
0.518380
0.518116
0.517677
0.517038
0.516184
0.515101
0.513782
0.512224
0.510431
0.508409
0.506166
0.503715
0.501072
0.498256
0.495291
0.492201
0.489015
0.485764
0.482484
0.479218
0.476010
0.472910
0.469971
0.467248
0.464796
0.462670
0.460920
0.459591
0.458720
0.458336
0.458455
0.459079
0.460199
0.461795
0.463850
0.466358
0.469314
0.472694
0.476402
0.480272
0.484120
0.487818
0.491314
0.494605
0.497713
0.500655
0.503420
0.505966
0.508243
0.510219
0.511884
0.513245
0.514324
0.515148
0.515754
0.516180
0.516466
0.516654
0.516781
0.516881
0.516983
0.517109
0.517274
0.517485
0.519099
0.519067
0.518905
0.518597
0.518137
0.517523
0.516759
0.515857
0.514833
0.513706
0.512484
0.511173
0.509791
0.508370
0.506936
0.505501
0.504072
0.502659
0.501270
0.499913
0.498598
0.497333
0.496131
0.495004
0.493967
0.493039
0.492238
0.491584
0.491096
0.490791
0.490684
0.490779
0.491076
0.491579
0.492317
0.493368
0.494837
0.496758
0.498984
0.501225
0.503256
0.505045
0.506656
0.508118
0.509466
0.510763
0.512050
0.513294
0.514429
0.515399
0.516179
0.516766
0.517173
0.517420
0.517534
0.517544
0.517484
0.517387
0.517283
0.517199
0.517159
0.517180
0.517269
0.517431
0.519857
0.520070
0.520199
0.520240
0.520196
0.520078
0.519904
0.519714
0.519564
0.519489
0.519440
0.519329
0.519179
0.519118
0.519233
0.519517
0.519934
0.520454
0.521054
0.521708
0.522385
0.523054
0.523683
0.524239
0.524696
0.525031
0.525231
0.525287
0.525199
0.524974
0.524619
0.524138
0.523532
0.522821
0.522103
0.521605
0.521618
0.522216
0.522993
0.523329
0.523068
0.522641
0.522393
0.522196
0.521860
0.521464
0.521173
0.521026
0.520948
0.520856
0.520704
0.520476
0.520177
0.519817
0.519414
0.518990
0.518567
0.518172
0.517826
0.517551
0.517363
0.517272
0.517283
0.517392
0.520610
0.521063
0.521481
0.521867
0.522236
0.522613
0.523051
0.523689
0.524760
0.526357
0.528033
0.529110
0.529613
0.530268
0.531559
0.533422
0.535638
0.538067
0.540636
0.543280
0.545933
0.548519
0.550963
0.553189
0.555127
0.556717
0.557908
0.558666
0.558972
0.558818
0.558204
0.557118
0.555544
0.553501
0.551178
0.549074
0.547826
0.547458
0.546786
0.544435
0.540793
0.537753
0.536223
0.535288
0.533902
0.532054
0.530233
0.528696
0.527408
0.526261
0.525185
0.524151
0.523152
0.522192
0.521279
0.520425
0.519645
0.518956
0.518372
0.517908
0.517574
0.517373
0.517305
0.517363
0.521310
0.521987
0.522673
0.523381
0.524135
0.524988
0.526110
0.528046
0.531805
0.537695
0.543430
0.545606
0.544256
0.542837
0.543670
0.546472
0.550245
0.554432
0.558830
0.563326
0.567816
0.572188
0.576324
0.580108
0.583428
0.586185
0.588299
0.589709
0.590377
0.590281
0.589403
0.587700
0.585097
0.581561
0.577390
0.573566
0.571404
0.570746
0.568605
0.562060
0.553102
0.546958
0.545455
0.545657
0.544521
0.541802
0.538661
0.535835
0.533418
0.531289
0.529353
0.527569
0.525920
0.524402
0.523014
0.521760
0.520648
0.519686
0.518881
0.518242
0.517772
0.517469
0.517329
0.517338
0.521915
0.522785
0.523703
0.524689
0.525782
0.527098
0.529178
0.533940
0.545027
0.563460
0.580612
0.583723
0.572846
0.560806
0.556248
0.558160
0.562909
0.568564
0.574537
0.580635
0.586717
0.592635
0.598238
0.603372
0.607890
0.611661
0.614573
0.616545
0.617521
0.617464
0.616331
0.614018
0.610324
0.605062
0.598598
0.592696
0.589981
0.590201
0.587151
0.574994
0.558618
0.548888
0.548907
0.552352
0.552951
0.550074
0.545931
0.542008
0.538614
0.535635
0.532956
0.530523
0.528312
0.526311
0.524512
0.522913
0.521513
0.520314
0.519319
0.518528
0.517940
0.517549
0.517346
0.517314
0.522387
0.523410
0.524510
0.525715
0.527082
0.528882
0.532580
0.543574
0.572192
0.621254
0.665961
0.669756
0.632765
0.591627
0.571080
0.568288
0.572937
0.579620
0.586815
0.594168
0.601497
0.608631
0.615386
0.621581
0.627041
0.631607
0.635146
0.637556
0.638768
0.638731
0.637368
0.634486
0.629672
0.622410
0.612979
0.604173
0.600859
0.603523
0.601845
0.585001
0.560815
0.547178
0.548982
0.556256
0.559116
0.556454
0.551603
0.546835
0.542680
0.539038
0.535777
0.532836
0.530184
0.527803
0.525682
0.523811
0.522184
0.520799
0.519653
0.518742
0.518061
0.517602
0.517349
0.517285
0.522699
0.523824
0.525045
0.526395
0.527964
0.530290
0.536541
0.558529
0.618903
0.723738
0.818325
0.822447
0.736461
0.640643
0.589428
0.576679
0.579785
0.586941
0.594930
0.603114
0.611274
0.619215
0.626737
0.633639
0.639726
0.644822
0.648777
0.651477
0.652842
0.652809
0.651266
0.647914
0.642062
0.632664
0.619603
0.606630
0.601628
0.607632
0.611454
0.595235
0.566490
0.549146
0.550818
0.559679
0.563487
0.560728
0.555349
0.550022
0.545371
0.541292
0.537647
0.534368
0.531422
0.528788
0.526451
0.524398
0.522619
0.521108
0.519860
0.518869
0.518126
0.517620
0.517335
0.517250
0.522830
0.524001
0.525275
0.526689
0.528368
0.531191
0.540477
0.576168
0.676517
0.851563
1.008199
1.012098
0.864411
0.699071
0.608456
0.582484
0.582996
0.590088
0.598396
0.606941
0.615462
0.623755
0.631613
0.638823
0.645184
0.650510
0.654644
0.657467
0.658896
0.658857
0.657213
0.653573
0.646970
0.635731
0.618972
0.600780
0.591889
0.599660
0.612070
0.604850
0.578801
0.559350
0.557838
0.564130
0.566321
0.562726
0.556944
0.551374
0.546523
0.542262
0.538452
0.535026
0.531952
0.529207
0.526773
0.524638
0.522789
0.521221
0.519926
0.518897
0.518126
0.517600
0.517301
0.517208
0.522773
0.523931
0.525187
0.526579
0.528255
0.531342
0.542741
0.588369
0.717938
0.944182
1.144290
1.147302
0.956206
0.739864
0.619992
0.583953
0.582193
0.588857
0.597008
0.605421
0.613813
0.621982
0.629721
0.636823
0.643085
0.648327
0.652394
0.655168
0.656567
0.656517
0.654873
0.651201
0.644363
0.632185
0.612822
0.589682
0.574860
0.580156
0.599051
0.606200
0.591429
0.573810
0.567726
0.568365
0.567043
0.562209
0.556271
0.550808
0.546067
0.541888
0.538143
0.534771
0.531741
0.529032
0.526627
0.524514
0.522684
0.521129
0.519844
0.518824
0.518059
0.517539
0.517247
0.517160
0.522531
0.523617
0.524785
0.526069
0.527613
0.530542
0.541753
0.587160
0.716475
0.942444
1.142341
1.145041
0.953379
0.736527
0.616140
0.579561
0.577232
0.583304
0.590846
0.598644
0.606426
0.614001
0.621176
0.627757
0.633557
0.638406
0.642163
0.644717
0.645995
0.645930
0.644390
0.640962
0.634523
0.622738
0.602995
0.577152
0.556412
0.555085
0.573574
0.591885
0.592340
0.581739
0.573483
0.569078
0.564598
0.558991
0.553349
0.548362
0.544033
0.540195
0.536740
0.533618
0.530802
0.528275
0.526022
0.524035
0.522308
0.520837
0.519619
0.518652
0.517929
0.517441
0.517174
0.517106
0.522119
0.523080
0.524095
0.525190
0.526482
0.528839
0.537572
0.572613
0.672213
0.846422
1.002182
1.005033
0.856007
0.689241
0.597126
0.569567
0.568409
0.573760
0.580279
0.587015
0.593740
0.600288
0.606488
0.612170
0.617171
0.621344
0.624566
0.626744
0.627815
0.627728
0.626377
0.623427
0.617935
0.607816
0.590240
0.565329
0.541490
0.532645
0.544467
0.565078
0.576651
0.575513
0.569616
0.563869
0.558447
0.553162
0.548359
0.544190
0.540544
0.537283
0.534326
0.531636
0.529192
0.526981
0.524995
0.523229
0.521684
0.520362
0.519264
0.518391
0.517743
0.517312
0.517087
0.517051
0.521561
0.522351
0.523157
0.523997
0.524946
0.526528
0.531894
0.552843
0.612012
0.715476
0.808528
0.810900
0.722908
0.624882
0.571290
0.556007
0.556440
0.560810
0.565936
0.571227
0.576515
0.581665
0.586539
0.591000
0.594916
0.598170
0.600666
0.602332
0.603121
0.602997
0.601892
0.599567
0.595344
0.587652
0.574052
0.553522
0.531007
0.517562
0.521113
0.537014
0.551959
0.557931
0.556886
0.553234
0.549107
0.545162
0.541638
0.538553
0.535814
0.533329
0.531048
0.528946
0.527008
0.525228
0.523606
0.522145
0.520851
0.519734
0.518801
0.518059
0.517513
0.517160
0.516993
0.516998
0.520892
0.521475
0.522029
0.522563
0.523116
0.523936
0.526471
0.536098
0.563128
0.610369
0.653013
0.654480
0.614882
0.570872
0.547215
0.541096
0.542229
0.545246
0.548677
0.552226
0.555782
0.559249
0.562528
0.565519
0.568130
0.570280
0.571903
0.572951
0.573397
0.573223
0.572389
0.570751
0.567878
0.562759
0.553675
0.539329
0.521884
0.508486
0.506455
0.515744
0.528529
0.537183
0.540123
0.539599
0.537757
0.535640
0.533627
0.531798
0.530127
0.528571
0.527103
0.525708
0.524381
0.523123
0.521941
0.520849
0.519860
0.518992
0.518260
0.517678
0.517256
0.516997
0.516900
0.516953
0.520151
0.520503
0.520778
0.520973
0.521105
0.521267
0.521975
0.525125
0.534336
0.550615
0.565318
0.565671
0.551724
0.536308
0.528087
0.526075
0.526677
0.528007
0.529539
0.531152
0.532787
0.534388
0.535898
0.537262
0.538428
0.539355
0.540010
0.540374
0.540436
0.540196
0.539639
0.538686
0.537095
0.534286
0.529241
0.520953
0.510054
0.500311
0.496838
0.501385
0.510374
0.518529
0.523309
0.525198
0.525542
0.525273
0.524821
0.524331
0.523826
0.523296
0.522729
0.522119
0.521470
0.520792
0.520102
0.519420
0.518772
0.518183
0.517676
0.517273
0.516989
0.516836
0.516815
0.516922
0.519385
0.519496
0.519479
0.519324
0.519030
0.518623
0.518247
0.518421
0.520132
0.523667
0.526721
0.525883
0.521180
0.516075
0.512907
0.511423
0.510664
0.510128
0.509676
0.509277
0.508916
0.508580
0.508256
0.507932
0.507601
0.507260
0.506912
0.506563
0.506224
0.505909
0.505618
0.505315
0.504869
0.503977
0.502098
0.498632
0.493644
0.488785
0.486887
0.489645
0.495857
0.502610
0.507830
0.511192
0.513278
0.514681
0.515741
0.516598
0.517291
0.517822
0.518189
0.518395
0.518451
0.518377
0.518199
0.517948
0.517656
0.517359
0.517088
0.516872
0.516734
0.516691
0.516750
0.516911
0.518640
0.518513
0.518212
0.517715
0.517011
0.516097
0.515002
0.513836
0.512809
0.511992
0.510921
0.508909
0.505976
0.502855
0.500048
0.497519
0.495092
0.492684
0.490288
0.487922
0.485612
0.483385
0.481270
0.479299
0.477507
0.475930
0.474602
0.473557
0.472826
0.472432
0.472387
0.472675
0.473226
0.473879
0.474354
0.474331
0.473741
0.473197
0.473984
0.477121
0.482341
0.488286
0.493685
0.498067
0.501561
0.504444
0.506912
0.509059
0.510913
0.512479
0.513758
0.514761
0.515507
0.516025
0.516350
0.516521
0.516581
0.516573
0.516536
0.516505
0.516511
0.516576
0.516712
0.516926
0.517961
0.517615
0.517052
0.516243
0.515166
0.513805
0.512154
0.510227
0.508055
0.505654
0.502958
0.499870
0.496409
0.492709
0.488874
0.484927
0.480871
0.476731
0.472550
0.468382
0.464285
0.460324
0.456569
0.453091
0.449963
0.447253
0.445029
0.443347
0.442255
0.441787
0.441960
0.442766
0.444160
0.446045
0.448259
0.450618
0.453025
0.455656
0.458981
0.463442
0.468988
0.475033
0.480903
0.486224
0.490937
0.495121
0.498851
0.502166
0.505078
0.507588
0.509702
0.511436
0.512816
0.513879
0.514668
0.515231
0.515617
0.515877
0.516057
0.516200
0.516340
0.516504
0.516711
0.516971
0.517389
0.516856
0.516069
0.514996
0.513605
0.511871
0.509775
0.507307
0.504461
0.501236
0.497628
0.493631
0.489263
0.484561
0.479565
0.474313
0.468852
0.463239
0.457542
0.451842
0.446227
0.440795
0.435648
0.430891
0.426628
0.422960
0.419976
0.417754
0.416357
0.415826
0.416181
0.417416
0.419493
0.422336
0.425828
0.429833
0.434240
0.439037
0.444328
0.450223
0.456661
0.463356
0.469953
0.476192
0.481963
0.487242
0.492032
0.496331
0.500136
0.503445
0.506266
0.508620
0.510541
0.512070
0.513257
0.514157
0.514826
0.515319
0.515688
0.515981
0.516237
0.516487
0.516754
0.517052
0.516961
0.516281
0.515324
0.514049
0.512422
0.510410
0.507986
0.505128
0.501822
0.498058
0.493833
0.489152
0.484028
0.478487
0.472564
0.466305
0.459771
0.453033
0.446179
0.439309
0.432536
0.425980
0.419771
0.414039
0.408913
0.404514
0.400953
0.398322
0.396695
0.396118
0.396614
0.398174
0.400760
0.404299
0.408686
0.413797
0.419505
0.425714
0.432369
0.439421
0.446763
0.454209
0.461536
0.468560
0.475161
0.481275
0.486865
0.491907
0.496386
0.500299
0.503657
0.506485
0.508819
0.510708
0.512204
0.513368
0.514259
0.514937
0.515457
0.515870
0.516218
0.516535
0.516847
0.517170
0.516703
0.515926
0.514859
0.513461
0.511690
0.509510
0.506890
0.503802
0.500224
0.496143
0.491552
0.486452
0.480856
0.474787
0.468283
0.461393
0.454184
0.446739
0.439156
0.431549
0.424044
0.416780
0.409901
0.403554
0.397885
0.393028
0.389107
0.386223
0.384455
0.383855
0.384445
0.386214
0.389120
0.393090
0.398020
0.403785
0.410246
0.417269
0.424732
0.432514
0.440478
0.448462
0.456298
0.463833
0.470955
0.477583
0.483664
0.489160
0.494054
0.498341
0.502033
0.505159
0.507757
0.509877
0.511576
0.512916
0.513957
0.514762
0.515386
0.515881
0.516291
0.516652
0.516991
0.517327
0.516631
0.515812
0.514705
0.513265
0.511452
0.509228
0.506556
0.503408
0.499759
0.495591
0.490895
0.485670
0.479926
0.473687
0.466989
0.459885
0.452443
0.444750
0.436909
0.429038
0.421271
0.413753
0.406635
0.400071
0.394210
0.389195
0.385151
0.382185
0.380377
0.379780
0.380413
0.382267
0.385296
0.389426
0.394555
0.400556
0.407287
0.414601
0.422347
0.430379
0.438544
0.446692
0.454671
0.462350
0.469620
0.476398
0.482624
0.488258
0.493281
0.497687
0.501492
0.504722
0.507418
0.509630
0.511415
0.512832
0.513944
0.514810
0.515485
0.516022
0.516462
0.516842
0.517189
0.517522
0.516751
0.515947
0.514869
0.513475
0.511724
0.509580
0.507007
0.503975
0.500458
0.496439
0.491906
0.486857
0.481303
0.475263
0.468773
0.461885
0.454665
0.447197
0.439582
0.431937
0.424393
0.417089
0.410176
0.403801
0.398112
0.393246
0.389326
0.386454
0.384708
0.384139
0.384766
0.386577
0.389530
0.393551
0.398543
0.404384
0.410936
0.418053
0.425582
0.433371
0.441272
0.449138
0.456834
0.464240
0.471254
0.477798
0.483812
0.489257
0.494114
0.498379
0.502065
0.505201
0.507825
0.509984
0.511732
0.513127
0.514226
0.515085
0.515758
0.516293
0.516729
0.517102
0.517437
0.517753
0.517056
0.516323
0.515342
0.514077
0.512490
0.510548
0.508217
0.505470
0.502284
0.498642
0.494532
0.489953
0.484913
0.479431
0.473539
0.467284
0.460726
0.453942
0.447025
0.440080
0.433226
0.426592
0.420312
0.414522
0.409356
0.404937
0.401378
0.398771
0.397188
0.396673
0.397245
0.398892
0.401576
0.405231
0.409768
0.415077
0.421034
0.427504
0.434347
0.441422
0.448592
0.455725
0.462701
0.469414
0.475773
0.481706
0.487159
0.492098
0.496503
0.500373
0.503720
0.506568
0.508953
0.510919
0.512512
0.513786
0.514791
0.515579
0.516197
0.516687
0.517087
0.517427
0.517731
0.518015
0.517529
0.516917
0.516096
0.515036
0.513704
0.512073
0.510116
0.507809
0.505133
0.502074
0.498624
0.494780
0.490551
0.485953
0.481012
0.475768
0.470273
0.464590
0.458797
0.452982
0.447245
0.441692
0.436435
0.431589
0.427264
0.423564
0.420582
0.418396
0.417065
0.416629
0.417101
0.418474
0.420715
0.423771
0.427567
0.432012
0.437003
0.442426
0.448164