# vtk DataFile Version 3.0
structured grid
ASCII
DATASET STRUCTURED_GRID
DIMENSIONS 64 40 1
POINTS 2560 float
0.000000 -3.000000 0.000000
0.190476 -3.000000 0.000000
0.380952 -3.000000 0.000000
0.571429 -3.000000 0.000000
0.761905 -3.000000 0.000000
0.952381 -3.000000 0.000000
1.142857 -3.000000 0.000000
1.333333 -3.000000 0.000000
1.523810 -3.000000 0.000000
1.714286 -3.000000 0.000000
1.904762 -3.000000 0.000000
2.095238 -3.000000 0.000000
2.285714 -3.000000 0.000000
2.476190 -3.000000 0.000000
2.666667 -3.000000 0.000000
2.857143 -3.000000 0.000000
3.047619 -3.000000 0.000000
3.238095 -3.000000 0.000000
3.428571 -3.000000 0.000000
3.619048 -3.000000 0.000000
3.809524 -3.000000 0.000000
4.000000 -3.000000 0.000000
4.190476 -3.000000 0.000000
4.380952 -3.000000 0.000000
4.571429 -3.000000 0.000000
4.761905 -3.000000 0.000000
4.952381 -3.000000 0.000000
5.142857 -3.000000 0.000000
5.333333 -3.000000 0.000000
5.523810 -3.000000 0.000000
5.714286 -3.000000 0.000000
5.904762 -3.000000 0.000000
6.095238 -3.000000 0.000000
6.285714 -3.000000 0.000000
6.476190 -3.000000 0.000000
6.666667 -3.000000 0.000000
6.857143 -3.000000 0.000000
7.047619 -3.000000 0.000000
7.238095 -3.000000 0.000000
7.428571 -3.000000 0.000000
7.619048 -3.000000 0.000000
7.809524 -3.000000 0.000000
8.000000 -3.000000 0.000000
8.190476 -3.000000 0.000000
8.380952 -3.000000 0.000000
8.571429 -3.000000 0.000000
8.761905 -3.000000 0.000000
8.952381 -3.000000 0.000000
9.142857 -3.000000 0.000000
9.333333 -3.000000 0.000000
9.523810 -3.000000 0.000000
9.714286 -3.000000 0.000000
9.904762 -3.000000 0.000000
10.095238 -3.000000 0.000000
10.285714 -3.000000 0.000000
10.476190 -3.000000 0.000000
10.666667 -3.000000 0.000000
10.857143 -3.000000 0.000000
11.047619 -3.000000 0.000000
11.238095 -3.000000 0.000000
11.428571 -3.000000 0.000000
11.619048 -3.000000 0.000000
11.809524 -3.000000 0.000000
12.000000 -3.000000 0.000000
0.000000 -2.846154 0.000000
0.190476 -2.846154 0.000000
0.380952 -2.846154 0.000000
0.571429 -2.846154 0.000000
0.761905 -2.846154 0.000000
0.952381 -2.846154 0.000000
1.142857 -2.846154 0.000000
1.333333 -2.846154 0.000000
1.523810 -2.846154 0.000000
1.714286 -2.846154 0.000000
1.904762 -2.846154 0.000000
2.095238 -2.846154 0.000000
2.285714 -2.846154 0.000000
2.476190 -2.846154 0.000000
2.666667 -2.846154 0.000000
2.857143 -2.846154 0.000000
3.047619 -2.846154 0.000000
3.238095 -2.846154 0.000000
3.428571 -2.846154 0.000000
3.619048 -2.846154 0.000000
3.809524 -2.846154 0.000000
4.000000 -2.846154 0.000000
4.190476 -2.846154 0.000000
4.380952 -2.846154 0.000000
4.571429 -2.846154 0.000000
4.761905 -2.846154 0.000000
4.952381 -2.846154 0.000000
5.142857 -2.846154 0.000000
5.333333 -2.846154 0.000000
5.523810 -2.846154 0.000000
5.714286 -2.846154 0.000000
5.904762 -2.846154 0.000000
6.095238 -2.846154 0.000000
6.285714 -2.846154 0.000000
6.476190 -2.846154 0.000000
6.666667 -2.846154 0.000000
6.857143 -2.846154 0.000000
7.047619 -2.846154 0.000000
7.238095 -2.846154 0.000000
7.428571 -2.846154 0.000000
7.619048 -2.846154 0.000000
7.809524 -2.846154 0.000000
8.000000 -2.846154 0.000000
8.190476 -2.846154 0.000000
8.380952 -2.846154 0.000000
8.571429 -2.846154 0.000000
8.761905 -2.846154 0.000000
8.952381 -2.846154 0.000000
9.142857 -2.846154 0.000000
9.333333 -2.846154 0.000000
9.523810 -2.846154 0.000000
9.714286 -2.846154 0.000000
9.904762 -2.846154 0.000000
10.095238 -2.846154 0.000000
10.285714 -2.846154 0.000000
10.476190 -2.846154 0.000000
10.666667 -2.846154 0.000000
10.857143 -2.846154 0.000000
11.047619 -2.846154 0.000000
11.238095 -2.846154 0.000000
11.428571 -2.846154 0.000000
11.619048 -2.846154 0.000000
11.809524 -2.846154 0.000000
12.000000 -2.846154 0.000000
0.000000 -2.692308 0.000000
0.190476 -2.692308 0.000000
0.380952 -2.692308 0.000000
0.571429 -2.692308 0.000000
0.761905 -2.692308 0.000000
0.952381 -2.692308 0.000000
1.142857 -2.692308 0.000000
1.333333 -2.692308 0.000000
1.523810 -2.692308 0.000000
1.714286 -2.692308 0.000000
1.904762 -2.692308 0.000000
2.095238 -2.692308 0.000000
2.285714 -2.692308 0.000000
2.476190 -2.692308 0.000000
2.666667 -2.692308 0.000000
2.857143 -2.692308 0.000000
3.047619 -2.692308 0.000000
3.238095 -2.692308 0.000000
3.428571 -2.692308 0.000000
3.619048 -2.692308 0.000000
3.809524 -2.692308 0.000000
4.000000 -2.692308 0.000000
4.190476 -2.692308 0.000000
4.380952 -2.692308 0.000000
4.571429 -2.692308 0.000000
4.761905 -2.692308 0.000000
4.952381 -2.692308 0.000000
5.142857 -2.692308 0.000000
5.333333 -2.692308 0.000000
5.523810 -2.692308 0.000000
5.714286 -2.692308 0.000000
5.904762 -2.692308 0.000000
6.095238 -2.692308 0.000000
6.285714 -2.692308 0.000000
6.476190 -2.692308 0.000000
6.666667 -2.692308 0.000000
6.857143 -2.692308 0.000000
7.047619 -2.692308 0.000000
7.238095 -2.692308 0.000000
7.428571 -2.692308 0.000000
7.619048 -2.692308 0.000000
7.809524 -2.692308 0.000000
8.000000 -2.692308 0.000000
8.190476 -2.692308 0.000000
8.380952 -2.692308 0.000000
8.571429 -2.692308 0.000000
8.761905 -2.692308 0.000000
8.952381 -2.692308 0.000000
9.142857 -2.692308 0.000000
9.333333 -2.692308 0.000000
9.523810 -2.692308 0.000000
9.714286 -2.692308 0.000000
9.904762 -2.692308 0.000000
10.095238 -2.692308 0.000000
10.285714 -2.692308 0.000000
10.476190 -2.692308 0.000000
10.666667 -2.692308 0.000000
10.857143 -2.692308 0.000000
11.047619 -2.692308 0.000000
11.238095 -2.692308 0.000000
11.428571 -2.692308 0.000000
11.619048 -2.692308 0.000000
11.809524 -2.692308 0.000000
12.000000 -2.692308 0.000000
0.000000 -2.538462 0.000000
0.190476 -2.538462 0.000000
0.380952 -2.538462 0.000000
0.571429 -2.538462 0.000000
0.761905 -2.538462 0.000000
0.952381 -2.538462 0.000000
1.142857 -2.538462 0.000000
1.333333 -2.538462 0.000000
1.523810 -2.538462 0.000000
1.714286 -2.538462 0.000000
1.904762 -2.538462 0.000000
2.095238 -2.538462 0.000000
2.285714 -2.538462 0.000000
2.476190 -2.538462 0.000000
2.666667 -2.538462 0.000000
2.857143 -2.538462 0.000000
3.047619 -2.538462 0.000000
3.238095 -2.538462 0.000000
3.428571 -2.538462 0.000000
3.619048 -2.538462 0.000000
3.809524 -2.538462 0.000000
4.000000 -2.538462 0.000000
4.190476 -2.538462 0.000000
4.380952 -2.538462 0.000000
4.571429 -2.538462 0.000000
4.761905 -2.538462 0.000000
4.952381 -2.538462 0.000000
5.142857 -2.538462 0.000000
5.333333 -2.538462 0.000000
5.523810 -2.538462 0.000000
5.714286 -2.538462 0.000000
5.904762 -2.538462 0.000000
6.095238 -2.538462 0.000000
6.285714 -2.538462 0.000000
6.476190 -2.538462 0.000000
6.666667 -2.538462 0.000000
6.857143 -2.538462 0.000000
7.047619 -2.538462 0.000000
7.238095 -2.538462 0.000000
7.428571 -2.538462 0.000000
7.619048 -2.538462 0.000000
7.809524 -2.538462 0.000000
8.000000 -2.538462 0.000000
8.190476 -2.538462 0.000000
8.380952 -2.538462 0.000000
8.571429 -2.538462 0.000000
8.761905 -2.538462 0.000000
8.952381 -2.538462 0.000000
9.142857 -2.538462 0.000000
9.333333 -2.538462 0.000000
9.523810 -2.538462 0.000000
9.714286 -2.538462 0.000000
9.904762 -2.538462 0.000000
10.095238 -2.538462 0.000000
10.285714 -2.538462 0.000000
10.476190 -2.538462 0.000000
10.666667 -2.538462 0.000000
10.857143 -2.538462 0.000000
11.047619 -2.538462 0.000000
11.238095 -2.538462 0.000000
11.428571 -2.538462 0.000000
11.619048 -2.538462 0.000000
11.809524 -2.538462 0.000000
12.000000 -2.538462 0.000000
0.000000 -2.384615 0.000000
0.190476 -2.384615 0.000000
0.380952 -2.384615 0.000000
0.571429 -2.384615 0.000000
0.761905 -2.384615 0.000000
0.952381 -2.384615 0.000000
1.142857 -2.384615 0.000000
1.333333 -2.384615 0.000000
1.523810 -2.384615 0.000000
1.714286 -2.384615 0.000000
1.904762 -2.384615 0.000000
2.095238 -2.384615 0.000000
2.285714 -2.384615 0.000000
2.476190 -2.384615 0.000000
2.666667 -2.384615 0.000000
2.857143 -2.384615 0.000000
3.047619 -2.384615 0.000000
3.238095 -2.384615 0.000000
3.428571 -2.384615 0.000000
3.619048 -2.384615 0.000000
3.809524 -2.384615 0.000000
4.000000 -2.384615 0.000000
4.190476 -2.384615 0.000000
4.380952 -2.384615 0.000000
4.571429 -2.384615 0.000000
4.761905 -2.384615 0.000000
4.952381 -2.384615 0.000000
5.142857 -2.384615 0.000000
5.333333 -2.384615 0.000000
5.523810 -2.384615 0.000000
5.714286 -2.384615 0.000000
5.904762 -2.384615 0.000000
6.095238 -2.384615 0.000000
6.285714 -2.384615 0.000000
6.476190 -2.384615 0.000000
6.666667 -2.384615 0.000000
6.857143 -2.384615 0.000000
7.047619 -2.384615 0.000000
7.238095 -2.384615 0.000000
7.428571 -2.384615 0.000000
7.619048 -2.384615 0.000000
7.809524 -2.384615 0.000000
8.000000 -2.384615 0.000000
8.190476 -2.384615 0.000000
8.380952 -2.384615 0.000000
8.571429 -2.384615 0.000000
8.761905 -2.384615 0.000000
8.952381 -2.384615 0.000000
9.142857 -2.384615 0.000000
9.333333 -2.384615 0.000000
9.523810 -2.384615 0.000000
9.714286 -2.384615 0.000000
9.904762 -2.384615 0.000000
10.095238 -2.384615 0.000000
10.285714 -2.384615 0.000000
10.476190 -2.384615 0.000000
10.666667 -2.384615 0.000000
10.857143 -2.384615 0.000000
11.047619 -2.384615 0.000000
11.238095 -2.384615 0.000000
11.428571 -2.384615 0.000000
11.619048 -2.384615 0.000000
11.809524 -2.384615 0.000000
12.000000 -2.384615 0.000000
0.000000 -2.230769 0.000000
0.190476 -2.230769 0.000000
0.380952 -2.230769 0.000000
0.571429 -2.230769 0.000000
0.761905 -2.230769 0.000000
0.952381 -2.230769 0.000000
1.142857 -2.230769 0.000000
1.333333 -2.230769 0.000000
1.523810 -2.230769 0.000000
1.714286 -2.230769 0.000000
1.904762 -2.230769 0.000000
2.095238 -2.230769 0.000000
2.285714 -2.230769 0.000000
2.476190 -2.230769 0.000000
2.666667 -2.230769 0.000000
2.857143 -2.230769 0.000000
3.047619 -2.230769 0.000000
3.238095 -2.230769 0.000000
3.428571 -2.230769 0.000000
3.619048 -2.230769 0.000000
3.809524 -2.230769 0.000000
4.000000 -2.230769 0.000000
4.190476 -2.230769 0.000000
4.380952 -2.230769 0.000000
4.571429 -2.230769 0.000000
4.761905 -2.230769 0.000000
4.952381 -2.230769 0.000000
5.142857 -2.230769 0.000000
5.333333 -2.230769 0.000000
5.523810 -2.230769 0.000000
5.714286 -2.230769 0.000000
[...]
POINT_DATA 2560
SCALARS pressure float 1
LOOKUP_TABLE default
0.522074
0.522847
0.523792
0.524934
0.526302
0.527925
0.529833
0.532059
0.534631
0.537576
0.540916
0.544667
0.548832
0.553407
0.558372
0.563693
0.569319
0.575183
0.581205
0.587285
0.593314
0.599172
0.604734
0.609870
0.614457
0.618377
0.621526
0.623817
0.625185
0.625590
0.625019
0.623485
0.621030
0.617722
0.613647
0.608913
0.603641
0.597957
0.591993
0.585879
0.579735
0.573675
0.567798
0.562185
0.556903
0.552001
0.547512
0.543451
0.539822
0.536615
0.533811
0.531383
0.529301
0.527528
0.526031
0.524775
0.523726
0.522855
0.522134
0.521541
0.521057
0.520664
0.520350
0.520105
0.522438
0.523354
0.524473
0.525826
0.527445
0.529364
0.531621
0.534251
0.537290
0.540770
0.544716
0.549145
0.554064
0.559466
0.565328
0.571611
0.578254
0.585180
0.592292
0.599474
0.606597
0.613521
0.620095
0.626169
0.631596
0.636235
0.639964
0.642679
0.644302
0.644786
0.644113
0.642301
0.639399
0.635484
0.630663
0.625063
0.618826
0.612103
0.605051
0.597821
0.590559
0.583398
0.576452
0.569821
0.563582
0.557793
0.552491
0.547697
0.543412
0.539626
0.536315
0.533449
0.530990
0.528897
0.527128
0.525643
0.524402
0.523371
0.522517
0.521814
0.521239
0.520772
0.520399
0.520107
0.522619
0.523630
0.524863
0.526352
0.528130
0.530235
0.532707
0.535585
0.538907
0.542708
0.547017
0.551852
0.557220
0.563116
0.569514
0.576372
0.583625
0.591189
0.598958
0.606808
0.614596
0.622170
0.629366
0.636018
0.641965
0.647053
0.651146
0.654129
0.655917
0.656456
0.655725
0.653744
0.650566
0.646278
0.640995
0.634858
0.628024
0.620659
0.612936
0.605021
0.597073
0.589238
0.581643
0.574395
0.567578
0.561255
0.555467
0.550235
0.545560
0.541431
0.537820
0.534695
0.532012
0.529727
0.527795
0.526170
0.524810
0.523677
0.522736
0.521958
0.521320
0.520800
0.520383
0.520057
0.522601
0.523654
0.524936
0.526478
0.528314
0.530484
0.533025
0.535979
0.539383
0.543273
0.547680
0.552622
0.558109
0.564134
0.570673
0.577684
0.585103
0.592843
0.600798
0.608840
0.616825
0.624596
0.631985
0.638821
0.644939
0.650178
0.654397
0.657478
0.659330
0.659895
0.659154
0.657124
0.653860
0.649452
0.644020
0.637708
0.630679
0.623108
0.615170
0.607039
0.598880
0.590840
0.583051
0.575623
0.568642
0.562172
0.556253
0.550906
0.546133
0.541917
0.538233
0.535043
0.532304
0.529970
0.527992
0.526324
0.524924
0.523752
0.522774
0.521962
0.521290
0.520741
0.520298
0.519949
0.522379
0.523420
0.524682
0.526194
0.527987
0.530095
0.532557
0.535409
0.538689
0.542431
0.546663
0.551407
0.556672
0.562454
0.568731
0.575464
0.582593
0.590037
0.597695
0.605444
0.613146
0.620650
0.627793
0.634411
0.640338
0.645422
0.649523
0.652523
0.654333
0.654897
0.654193
0.652238
0.649084
0.644817
0.639555
0.633441
0.626633
0.619301
0.611618
0.603753
0.595866
0.588101
0.580586
0.573426
0.566705
0.560482
0.554797
0.549666
0.545091
0.541053
0.537527
0.534473
0.531849
0.529610
0.527707
0.526097
0.524737
0.523592
0.522629
0.521821
0.521148
0.520593
0.520141
0.519784
0.521961
0.522938
0.524115
0.525515
0.527165
0.529092
0.531330
0.533911
0.536867
0.540231
0.544028
0.548280
0.552996
0.558175
0.563801
0.569841
0.576243
0.582937
0.589832
0.596821
0.603779
0.610569
0.617043
0.623050
0.628441
0.633072
0.636814
0.639560
0.641225
0.641759
0.641139
0.639380
0.636525
0.632654
0.627874
0.622316
0.616127
0.609466
0.602490
0.595356
0.588209
0.581182
0.574390
0.567930
0.561876
0.556282
0.551180
0.546585
0.542493
0.538887
0.535741
0.533016
0.530673
0.528668
0.526957
0.525501
0.524261
0.523205
0.522306
0.521543
0.520897
0.520358
0.519916
0.519564
0.521366
0.522232
0.523265
0.524480
0.525896
0.527535
0.529418
0.531574
0.534027
0.536805
0.539932
0.543425
0.547297
0.551550
0.556175
0.561148
0.566429
0.571964
0.577679
0.583487
0.589284
0.594956
0.600378
0.605422
0.609959
0.613867
0.617033
0.619363
0.620789
0.621266
0.620776
0.619326
0.616947
0.613703
0.609684
0.605005
0.599797
0.594195
0.588335
0.582351
0.576366
0.570494
0.564832
0.559460
0.554441
0.549817
0.545614
0.541841
0.538491
0.535547
0.532981
0.530760
0.528846
0.527202
0.525788
0.524572
0.523522
0.522612
0.521823
0.521138
0.520548
0.520046
0.519628
0.519292
0.520623
0.521339
0.522179
0.523149
0.524257
0.525515
0.526937
0.528539
0.530340
0.532360
0.534619
0.537134
0.539917
0.542976
0.546309
0.549904
0.553738
0.557773
0.561961
0.566237
0.570527
0.574745
0.578796
0.582582
0.586001
0.588955
0.591356
0.593132
0.594234
0.594633
0.594317
0.593280
0.591534
0.589114
0.586091
0.582559
0.578627
0.574406
0.570002
0.565516
0.561045
0.556674
0.552479
0.548519
0.544840
0.541471
0.538429
0.535716
0.533322
0.531229
0.529411
0.527838
0.526478
0.525298
0.524270
0.523366
0.522565
0.521848
0.521206
0.520630
0.520117
0.519670
0.519289
0.518979
0.519771
0.520307
0.520918
0.521598
0.522344
0.523155
0.524035
0.524989
0.526028
0.527163
0.528410
0.529783
0.531298
0.532965
0.534792
0.536781
0.538926
0.541213
0.543617
0.546104
0.548631
0.551146
0.553590
0.555897
0.557997
0.559819
0.561303
0.562405
0.563107
0.563407
0.563304
0.562783
0.561812
0.560381
0.558529
0.556337
0.553896
0.551290
0.548589
0.545860
0.543161
0.540549
0.538068
0.535758
0.533643
0.531740
0.530051
0.528574
0.527293
0.526191
0.525243
0.524425
0.523710
0.523073
0.522495
0.521957
0.521447
0.520959
0.520490
0.520044
0.519625
0.519244
0.518910
0.518633
0.518854
0.519195
0.519556
0.519919
0.520270
0.520596
0.520888
0.521139
0.521351
0.521527
0.521678
0.521815
0.521955
0.522115
0.522312
0.522563
0.522880
0.523272
0.523743
0.524290
0.524905
0.525572
0.526268
0.526962
0.527614
0.528181
0.528627
0.528941
0.529145
0.529294
0.529434
0.529542
0.529508
0.529223
0.528672
0.527933
0.527100
0.526238
0.525384
0.524560
0.523785
0.523080
0.522460
0.521938
0.521518
0.521201
0.520978
0.520838
0.520762
0.520732
0.520727
0.520725
0.520708
0.520660
0.520568
0.520427
0.520235
0.519995
0.519717
0.519412
0.519097
0.518790
0.518508
0.518267
0.517922
0.518064
0.518170
0.518211
0.518161
0.517992
0.517684
0.517220
0.516591
0.515793
0.514830
0.513710
0.512451
0.511078
0.509617
0.508100
0.506558
0.505023
0.503527
0.502100
0.500768
0.499552
0.498463
0.497503
0.496654
0.495889
0.495185
0.494545
0.494045
0.493871
0.494238
0.495157
0.496342
0.497436
0.498309
0.499065
0.499857
0.500759
0.501779
0.502892
0.504075
0.505311
0.506584
0.507881
0.509187
0.510482
0.511750
0.512968
0.514118
0.515179
0.516131
0.516960
0.517653
0.518203
0.518608
0.518871
0.519002
0.519015
0.518930
0.518770
0.518561
0.518328
0.518099
0.517896
0.517025
0.516977
0.516840
0.516574
0.516140
0.515499
0.514618
0.513473
0.512047
0.510330
0.508313
0.505990
0.503379
0.500523
0.497468
0.494256
0.490934
0.487555
0.484178
0.480861
0.477665
0.474643
0.471838
0.469272
0.466936
0.464792
0.462772
0.460832
0.459116
0.458152
0.458644
0.460756
0.463768
0.466716
0.469213
0.471469
0.473809
0.476385
0.479189
0.482153
0.485210
0.488304
0.491389
0.494427
0.497382
0.500221
0.502914
0.505434
0.507756
0.509861
0.511731
0.513355
0.514729
0.515852
0.516731
0.517381
0.517821
0.518075
0.518175
0.518152
0.518043
0.517881
0.517701
0.517533
0.516211
0.515995
0.515643
0.515105
0.514329
0.513267
0.511879
0.510145
0.508069
0.505640
0.502778
0.499377
0.495455
0.491161
0.486614
0.481864
0.476944
0.471914
0.466851
0.461844
0.456978
0.452336
0.447982
0.443943
0.440191
0.436607
0.432954
0.428982
0.424959
0.422252
0.422725
0.426844
0.432879
0.438567
0.443038
0.446781
0.450516
0.454576
0.458968
0.463586
0.468318
0.473073
0.477779
0.482375
0.486806
0.491027
0.494997
0.498682
0.502055
0.505095
0.507788
0.510126
0.512110
0.513747
0.515052
0.516047
0.516763
0.517232
0.517495
0.517593
0.517571
0.517470
0.517332
0.517194
0.515523
0.515173
0.514649
0.513889
0.512835
0.511433
0.509657
0.507565
0.505322
0.502959
0.499985
0.495693
0.490107
0.483975
0.477831
0.471687
0.465424
0.459031
0.452583
0.446184
0.439943
0.433963
0.428316
0.423012
0.417953
0.412822
0.406966
0.399696
0.391609
0.385837
0.386368
0.393948
0.404822
0.414452
0.421298
0.426461
0.431358
0.436627
0.442321
0.448298
0.454407
0.460528
0.466566
0.472442
0.478088
0.483446
0.488468
0.493114
0.497354
0.501166
0.504538
0.507466
0.509954
0.512015
0.513670
0.514950
0.515891
0.516535
0.516929
0.517124
0.517169
0.517115
0.517008
0.516891
0.514999
0.514557
0.513913
0.512999
0.511750
0.510121
0.508187
0.506397
0.505676
0.506261
0.505804
0.500862
0.491462
0.481095
0.472149
0.464435
0.457077
0.449678
0.442224
0.434817
0.427580
0.420623
0.414011
0.407713
0.401491
0.394658
0.385835
0.373705
0.359715
0.349968
0.351337
0.364302
0.381790
0.396186
0.405428
0.411722
0.417446
0.423588
0.430232
0.437198
0.444306
0.451415
0.458417
0.465219
0.471745
0.477928
0.483714
0.489059
0.493931
0.498307
0.502175
0.505534
0.508390
0.510760
0.512670
0.514156
0.515258
0.516025
0.516510
0.516769
0.516858
0.516832
0.516743
0.516637
0.514665
0.514181
0.513478
0.512485
0.511139
0.509448
0.507842
0.508132
0.513874
0.526016
0.535847
0.530525
0.510093
0.487447
0.471325
0.460820
0.452434
0.444413
0.436390
0.428419
0.420623
0.413110
0.405923
0.398957
0.391772
0.383148
0.370772
0.352816
0.332388
0.319416
0.323404
0.343307
0.367726
0.386109
0.396737
0.403445
0.409543
0.416187
0.423396
0.430938
0.438612
0.446274
0.453813
0.461133
0.468151
0.474798
0.481015
0.486756
0.491988
0.496686
0.500839
0.504445
0.507512
0.510058
0.512112
0.513711
0.514901
0.515732
0.516261
0.516549
0.516654
0.516635
0.516548
0.516442
0.514539
0.514063
0.513367
0.512379
0.511047
0.509522
0.509152
0.515229
0.538008
0.580256
0.617054
0.611631
0.564071
0.511214
0.477960
0.461565
0.451837
0.443552
0.435426
0.427369
0.419487
0.411873
0.404536
0.397286
0.389446
0.379234
0.363534
0.340573
0.315818
0.302692
0.311622
0.338357
0.367145
0.386231
0.395930
0.401957
0.407959
0.414773
0.422178
0.429870
0.437655
0.445407
0.453025
0.460422
0.467516
0.474238
0.480528
0.486340
0.491639
0.496400
0.500609
0.504264
0.507372
0.509951
0.512029
0.513644
0.514841
0.515673
0.516197
0.516474
0.516566
0.516533
0.516431
0.516312
0.514624
0.514209
0.513586
0.512685
0.511481
0.510394
0.512471
0.529428
0.583891
0.681977
0.768836
0.763559
0.666358
0.558205
0.493811
0.467050
0.455375
0.447147
0.439384
0.431723
0.424232
0.416983
0.409945
0.402847
0.394821
0.383722
0.366186
0.341302
0.316901
0.308083
0.323466
0.354164
0.381543
0.396072
0.402103
0.406650
0.412423
0.419265
0.426578
0.434029
0.441479
0.448855
0.456093
0.463122
0.469872
0.476276
0.482278
0.487833
0.492903
0.497463
0.501497
0.505001
0.507979
0.510445
0.512427
0.513958
0.515082
0.515850
0.516319
0.516547
0.516597
0.516528
0.516396
0.516252
0.514913
0.514609
0.514120
0.513384
0.512412
0.511967
0.517252
0.548136
0.642933
0.811998
0.962430
0.957470
0.797691
0.619760
0.516185
0.476595
0.462782
0.454971
0.448019
0.441213
0.434569
0.428132
0.421836
0.415361
0.407773
0.396952
0.380051
0.357598
0.338852
0.337844
0.358597
0.387186
0.405445
0.410547
0.411841
0.415652
0.421986
0.429138
0.436240
0.443127
0.449836
0.456403
0.462826
0.469067
0.475072
0.480786
0.486157
0.491140
0.495700
0.499809
0.503449
0.506611
0.509295
0.511511
0.513281
0.514634
0.515609
0.516253
0.516619
0.516763
0.516743
0.516618
0.516441
0.516263
0.515388
0.515236
0.514936
0.514432
0.513767
0.513957
0.521799
0.563156
0.687885
0.909439
1.106729
1.102221
0.897180
0.668522
0.536677
0.488217
0.473422
0.466531
0.460805
0.455262
0.449871
0.444648
0.439504
0.434114
0.427636
0.418369
0.404556
0.388145
0.378237
0.385095
0.406293
0.424296
0.426645
0.420921
0.419920
0.426138
0.435139
0.443474
0.450476
0.456579
0.462207
0.467588
0.472812
0.477893
0.482801
0.487494
0.491928
0.496062
0.499861
0.503296
0.506346
0.508996
0.511240
0.513084
0.514540
0.515631
0.516391
0.516858
0.517080
0.517108
0.516996
0.516797
0.516564
0.516341
0.516018
0.516053
0.515984
0.515764
0.515445
0.516053
0.524390
0.566331
0.691739
0.914068
1.112203
1.108649
0.904760
0.677342
0.546822
0.499771
0.486460
0.481112
0.476967
0.473020
0.469212
0.465533
0.461883
0.457971
0.453161
0.446377
0.437039
0.427891
0.426236
0.436800
0.450655
0.450383
0.434484
0.421016
0.422728
0.435826
0.450367
0.461163
0.468360
0.473557
0.477842
0.481732
0.485448
0.489066
0.492590
0.495993
0.499241
0.502300
0.505134
0.507714
0.510013
0.512012
0.513699
0.515069
0.516128
0.516890
0.517379
0.517626
0.517672
0.517560
0.517338
0.517054
0.516755
0.516482
0.516767
0.517010
0.517201
0.517301
0.517347
0.518127
0.524870
0.557469
0.654261
0.825613
0.978606
0.976522
0.820027
0.645702
0.546013
0.510562
0.501110
0.497834
0.495531
0.493416
0.491424
0.489524
0.487611
0.485450
0.482630
0.478652
0.473761
0.470611
0.473646
0.481904
0.482183
0.461679
0.430882
0.414333
0.422390
0.445069
0.467027
0.481218
0.488849
0.493053
0.495802
0.497984
0.499973
0.501915
0.503850
0.505772
0.507658
0.509479
0.511202
0.512795
0.514229
0.515478
0.516522
0.517347
0.517949
0.518334
0.518514
0.518513
0.518361
0.518093
0.517750
0.517373
0.517002
0.516676
0.517590
0.518050
0.518514
0.518951
0.519375
0.520247
0.524655
0.544357
0.602011
0.703762
0.794770
0.794150
0.702155
0.599729
0.541531
0.521385
0.516682
0.515708
0.515381
0.515220
0.515168
0.515170
0.515120
0.514833
0.514069
0.512702
0.511290
0.511746
0.515623
0.517909
0.504624
0.469269
0.429966
0.413097
0.426832
0.457476
0.485837
0.503023
0.510895
0.513951
0.515026
0.515373
0.515515
0.515666
0.515904
0.516244
0.516673
0.517168
0.517700
0.518236
0.518742
0.519185
0.519539
0.519780
0.519894
0.519876
0.519729
0.519465
0.519105
0.518675
0.518207
0.517735
0.517293
0.516913
0.518438
0.519112
0.519846
0.520616
0.521423
0.522474
0.525169
0.534853
0.561828
0.608898
0.651171
0.651896
0.611173
0.565824
0.540701
0.532994
0.532431
0.533679
0.535324
0.537124
0.539015
0.540924
0.542736
0.544299
0.545467
0.546263
0.547189
0.549267
0.552062
0.549058
0.528096
0.487059
0.445727
0.429140
0.444482
0.477593
0.508176
0.526200
0.533468
0.535087
0.534387
0.532863
0.531144
0.529497
0.528032
0.526781
0.525745
0.524907
0.524239
0.523709
0.523279
0.522910
0.522568
0.522221
0.521845
0.521424
0.520950
0.520425
0.519859
0.519271
0.518682
0.518120
0.517611
0.517181
0.519264
0.520135
0.521117
0.522197
0.523374
0.524719
0.526726
0.531269
0.541958
0.559787
0.576082
0.578020
0.565650
0.551849
0.545306
0.545041
0.547457
0.550674
0.554168
0.557814
0.561535
0.565236
0.568790
0.572056
0.574918
0.577402
0.579816
0.582527
0.584307
0.579243
0.557981
0.519926
0.482021
0.465818
0.478207
0.507198
0.534408
0.550084
0.555462
0.555269
0.552749
0.549414
0.545926
0.542580
0.539506
0.536753
0.534331
0.532231
0.530427
0.528886
0.527568
0.526430
0.525429
0.524525
0.523685
0.522883
0.522103
0.521335
0.520580
0.519847
0.519150
0.518507
0.517940
0.517467
0.520019
0.521057
0.522252
0.523600
0.525105
0.526790
0.528800
0.531651
0.536330
0.543125
0.549727
0.552715
0.552116
0.551403
0.552911
0.556373
0.560805
0.565671
0.570785
0.576054
0.581381
0.586650
0.591720
0.596444
0.600700
0.604460
0.607847
0.610897
0.612439
0.608201
0.591690
0.562195
0.531591
0.516423
0.523117
0.543267
0.562652
0.573238
0.575593
0.573308
0.569020
0.564040
0.558980
0.554135
0.549643
0.545565
0.541920
0.538703
0.535894
0.533458
0.531353
0.529532
0.527947
0.526551
0.525302
0.524167
0.523119
0.522141
0.521224
0.520369
0.519583
0.518876
0.518262
0.517756
0.520663
0.521828
0.523185
0.524742
0.526506
0.528495
0.530756
0.533415
0.536699
0.540693
0.544946
0.548773
0.552199
0.555950
0.560508
0.565805
0.571611
0.577771
0.584185
0.590757
0.597370
0.603890
0.610162
0.616026
0.621339
0.626016
0.630052
0.633363
0.635160
0.632883
0.622554
0.603161
0.581444
0.568330
0.569127
0.579131
0.589118
0.593538
0.592444
0.588072
0.582216
0.575864
0.569527
0.563473
0.557839
0.552692
0.548058
0.543938
0.540313
0.537150
0.534406
0.532031
0.529972
0.528178
0.526600
0.525198
0.523938
0.522795
0.521755
0.520809
0.519958
0.519207
0.518563
0.518037
0.521161
0.522403
0.523863
0.525554
0.527491
0.529693
0.532192
0.535031
0.538276
0.541969
0.546066
0.550483
0.555241
0.560464
0.566224
0.572491
0.579192
0.586248
0.593569
0.601047
0.608551
0.615932
0.623026
0.629660
0.635670
0.640929
0.645353
0.648830
0.650914
0.650304
0.644902
0.633800
0.620039
0.609610
0.606181
0.607862
0.609800
0.608811
0.604695
0.598583
0.591521
0.584174
0.576936
0.570037
0.563605
0.557710
0.552381
0.547623
0.543421
0.539744
0.536546
0.533778
0.531383
0.529308
0.527500
0.525913
0.524510
0.523259
0.522141
0.521142
0.520257
0.519485
0.518830
0.518297
0.521486
0.522752
0.524248
0.525990
0.528000
0.530300
0.532920
0.535896
0.539265
0.543064
0.547318
0.552042
0.557254
0.562977
0.569212
0.575932
0.583084
0.590598
0.598379
0.606312
0.614258
0.622063
0.629554
0.636554
0.642888
0.648401
0.652970
0.656472
0.658665
0.658961
0.656407
0.650434
0.642135
0.634208
0.628742
0.625373
0.622133
0.617537
0.611375
0.604130
0.596352
0.588467
0.580765
0.573438
0.566601
0.560321
0.554632
0.549542
0.545036
0.541084
0.537645
0.534667
0.532095
0.529873
0.527947
0.526270
0.524801
0.523506
0.522362
0.521350
0.520463
0.519697
0.519051
0.518528
0.521626
0.522857
0.524318
0.526026
0.528003
0.530275
0.532872
0.535828
0.539178
0.542958
0.547200
0.551930
0.557166
0.562916
0.569169
0.575897
0.583052
0.590560
0.598328
0.606238
0.614153
0.621917
0.629362
0.636313
0.642592
0.648039
0.652511
0.655884
0.658008
0.658624
0.657343
0.653891
0.648597
0.642500
0.636617
0.631119
0.625462
0.619127
0.612017
0.604343
0.596407
0.588482
0.580786
0.573475
0.566650
0.560374
0.554682
0.549581
0.545061
0.541094
0.537639
0.534647
0.532065
0.529839
0.527915
0.526248
0.524795
0.523522
0.522405
0.521424
0.520570
0.519836
0.519219
0.518721
0.521576
0.522718
0.524074
0.525661
0.527502
0.529621
0.532046
0.534810
0.537945
0.541485
0.545461
0.549898
0.554811
0.560207
0.566076
0.572389
0.579099
0.586139
0.593419
0.600828
0.608238
0.615502
0.622463
0.628955
0.634815
0.639886
0.644027
0.647120
0.649054
0.649699
0.648903
0.646558
0.642765
0.637906
0.632445
0.626624
0.620422
0.613754
0.606641
0.599219
0.591681
0.584220
0.577001
0.570149
0.563753
0.557870
0.552531
0.547744
0.543501
0.539775
0.536530
0.533720
0.531296
0.529208
0.527406
0.525847
0.524491
0.523307
0.522270
0.521363
0.520574
0.519898
0.519331
0.518874
0.521346
0.522346
0.523532
0.524921
0.526528
0.528377
0.530491
0.532899
0.535629
0.538711
0.542171
0.546033
0.550311
0.555009
0.560120
0.565619
0.571466
0.577602
0.583948
0.590408
0.596867
0.603200
0.609267
0.614924
0.620027
0.624438
0.628031
0.630700
0.632356
0.632924
0.632337
0.630562
0.627644
0.623743
0.619083
0.613854
0.608163
0.602078
0.595683
0.589099
0.582470
0.575942
0.569640
0.563665
0.558090
0.552964
0.548313
0.544146
0.540452
0.537211
0.534388
0.531944
0.529836
0.528019
0.526451
0.525092
0.523909
0.522875
0.521967
0.521172
0.520480
0.519885
0.519387
0.518984
0.520956
0.521770
0.522731
0.523851
0.525141
0.526619
0.528301
0.530210
0.532369
0.534800
0.537527
0.540568
0.543935
0.547635
0.551662
0.556000
0.560616
0.565466
0.570487
0.575604
0.580725
0.585750
0.590567
0.595061
0.599117
0.602623
0.605478
0.607595
0.608906
0.609360
0.608924
0.607589
0.605390
0.602407
0.598762
0.594585
0.589986
0.585062
0.579909
0.574633
0.569345
0.564153
0.559152
0.554418
0.550008
0.545958
0.542290
0.539008
0.536104
0.533558
0.531343
0.529427
0.527772
0.526344
0.525106
0.524029
0.523085
0.522253
0.521518
0.520868
0.520298
0.519805
0.519390
0.519053
0.520436
0.521028
0.521721
0.522519
0.523427
0.524453
0.525608
0.526906
0.528361
0.529990
0.531809
0.533833
0.536073
0.538535
0.541219
0.544116
0.547209
0.550468
0.553853
0.557313
0.560787
0.564205
0.567491
0.570565
0.573346
0.575756
0.577723
0.579187
0.580098
0.580423
0.580143
0.579258
0.577790
0.575786
0.573314
0.570454
0.567289
0.563894
0.560347
0.556727
0.553111
0.549574
0.546177
0.542974
0.540000
0.537281
0.534829
0.532645
0.530721
0.529041
0.527583
0.526322
0.525231
0.524283
0.523454
0.522721
0.522068
0.521481
0.520951
0.520472
0.520044
0.519668
0.519347
0.519085
0.519823
0.520172
0.520568
0.521008
0.521489
0.522011
0.522576
0.523186
0.523848
0.524571
0.525364
0.526237
0.527200
0.528260
0.529424
0.530691
0.532060
0.533520
0.535056
0.536646
0.538263
0.539873
0.541438
0.542919
0.544273
0.545460
0.546440
0.547181
0.547656
0.547846
0.547740
0.547336
0.546646
0.545690
0.544501
0.543118
0.541583
0.539938
0.538225