# vtk DataFile Version 3.0
structured grid
ASCII
DATASET STRUCTURED_GRID
DIMENSIONS 64 40 1
POINTS 2560 float
0.000000 -3.000000 0.000000
0.190476 -3.000000 0.000000
0.380952 -3.000000 0.000000
0.571429 -3.000000 0.000000
0.761905 -3.000000 0.000000
0.952381 -3.000000 0.000000
1.142857 -3.000000 0.000000
1.333333 -3.000000 0.000000
1.523810 -3.000000 0.000000
1.714286 -3.000000 0.000000
1.904762 -3.000000 0.000000
2.095238 -3.000000 0.000000
2.285714 -3.000000 0.000000
2.476190 -3.000000 0.000000
2.666667 -3.000000 0.000000
2.857143 -3.000000 0.000000
3.047619 -3.000000 0.000000
3.238095 -3.000000 0.000000
3.428571 -3.000000 0.000000
3.619048 -3.000000 0.000000
3.809524 -3.000000 0.000000
4.000000 -3.000000 0.000000
4.190476 -3.000000 0.000000
4.380952 -3.000000 0.000000
4.571429 -3.000000 0.000000
4.761905 -3.000000 0.000000
4.952381 -3.000000 0.000000
5.142857 -3.000000 0.000000
5.333333 -3.000000 0.000000
5.523810 -3.000000 0.000000
5.714286 -3.000000 0.000000
5.904762 -3.000000 0.000000
6.095238 -3.000000 0.000000
6.285714 -3.000000 0.000000
6.476190 -3.000000 0.000000
6.666667 -3.000000 0.000000
6.857143 -3.000000 0.000000
7.047619 -3.000000 0.000000
7.238095 -3.000000 0.000000
7.428571 -3.000000 0.000000
7.619048 -3.000000 0.000000
7.809524 -3.000000 0.000000
8.000000 -3.000000 0.000000
8.190476 -3.000000 0.000000
8.380952 -3.000000 0.000000
8.571429 -3.000000 0.000000
8.761905 -3.000000 0.000000
8.952381 -3.000000 0.000000
9.142857 -3.000000 0.000000
9.333333 -3.000000 0.000000
9.523810 -3.000000 0.000000
9.714286 -3.000000 0.000000
9.904762 -3.000000 0.000000
10.095238 -3.000000 0.000000
10.285714 -3.000000 0.000000
10.476190 -3.000000 0.000000
10.666667 -3.000000 0.000000
10.857143 -3.000000 0.000000
11.047619 -3.000000 0.000000
11.238095 -3.000000 0.000000
11.428571 -3.000000 0.000000
11.619048 -3.000000 0.000000
11.809524 -3.000000 0.000000
12.000000 -3.000000 0.000000
0.000000 -2.846154 0.000000
0.190476 -2.846154 0.000000
0.380952 -2.846154 0.000000
0.571429 -2.846154 0.000000
0.761905 -2.846154 0.000000
0.952381 -2.846154 0.000000
1.142857 -2.846154 0.000000
1.333333 -2.846154 0.000000
1.523810 -2.846154 0.000000
1.714286 -2.846154 0.000000
1.904762 -2.846154 0.000000
2.095238 -2.846154 0.000000
2.285714 -2.846154 0.000000
2.476190 -2.846154 0.000000
2.666667 -2.846154 0.000000
2.857143 -2.846154 0.000000
3.047619 -2.846154 0.000000
3.238095 -2.846154 0.000000
3.428571 -2.846154 0.000000
3.619048 -2.846154 0.000000
3.809524 -2.846154 0.000000
4.000000 -2.846154 0.000000
4.190476 -2.846154 0.000000
4.380952 -2.846154 0.000000
4.571429 -2.846154 0.000000
4.761905 -2.846154 0.000000
4.952381 -2.846154 0.000000
5.142857 -2.846154 0.000000
5.333333 -2.846154 0.000000
5.523810 -2.846154 0.000000
5.714286 -2.846154 0.000000
5.904762 -2.846154 0.000000
6.095238 -2.846154 0.000000
6.285714 -2.846154 0.000000
6.476190 -2.846154 0.000000
6.666667 -2.846154 0.000000
6.857143 -2.846154 0.000000
7.047619 -2.846154 0.000000
7.238095 -2.846154 0.000000
7.428571 -2.846154 0.000000
7.619048 -2.846154 0.000000
7.809524 -2.846154 0.000000
8.000000 -2.846154 0.000000
8.190476 -2.846154 0.000000
8.380952 -2.846154 0.000000
8.571429 -2.846154 0.000000
8.761905 -2.846154 0.000000
8.952381 -2.846154 0.000000
9.142857 -2.846154 0.000000
9.333333 -2.846154 0.000000
9.523810 -2.846154 0.000000
9.714286 -2.846154 0.000000
9.904762 -2.846154 0.000000
10.095238 -2.846154 0.000000
10.285714 -2.846154 0.000000
10.476190 -2.846154 0.000000
10.666667 -2.846154 0.000000
10.857143 -2.846154 0.000000
11.047619 -2.846154 0.000000
11.238095 -2.846154 0.000000
11.428571 -2.846154 0.000000
11.619048 -2.846154 0.000000
11.809524 -2.846154 0.000000
12.000000 -2.846154 0.000000
0.000000 -2.692308 0.000000
0.190476 -2.692308 0.000000
0.380952 -2.692308 0.000000
0.571429 -2.692308 0.000000
0.761905 -2.692308 0.000000
0.952381 -2.692308 0.000000
1.142857 -2.692308 0.000000
1.333333 -2.692308 0.000000
1.523810 -2.692308 0.000000
1.714286 -2.692308 0.000000
1.904762 -2.692308 0.000000
2.095238 -2.692308 0.000000
2.285714 -2.692308 0.000000
2.476190 -2.692308 0.000000
2.666667 -2.692308 0.000000
2.857143 -2.692308 0.000000
3.047619 -2.692308 0.000000
3.238095 -2.692308 0.000000
3.428571 -2.692308 0.000000
3.619048 -2.692308 0.000000
3.809524 -2.692308 0.000000
4.000000 -2.692308 0.000000
4.190476 -2.692308 0.000000
4.380952 -2.692308 0.000000
4.571429 -2.692308 0.000000
4.761905 -2.692308 0.000000
4.952381 -2.692308 0.000000
5.142857 -2.692308 0.000000
5.333333 -2.692308 0.000000
5.523810 -2.692308 0.000000
5.714286 -2.692308 0.000000
5.904762 -2.692308 0.000000
6.095238 -2.692308 0.000000
6.285714 -2.692308 0.000000
6.476190 -2.692308 0.000000
6.666667 -2.692308 0.000000
6.857143 -2.692308 0.000000
7.047619 -2.692308 0.000000
7.238095 -2.692308 0.000000
7.428571 -2.692308 0.000000
7.619048 -2.692308 0.000000
7.809524 -2.692308 0.000000
8.000000 -2.692308 0.000000
8.190476 -2.692308 0.000000
8.380952 -2.692308 0.000000
8.571429 -2.692308 0.000000
8.761905 -2.692308 0.000000
8.952381 -2.692308 0.000000
9.142857 -2.692308 0.000000
9.333333 -2.692308 0.000000
9.523810 -2.692308 0.000000
9.714286 -2.692308 0.000000
9.904762 -2.692308 0.000000
10.095238 -2.692308 0.000000
10.285714 -2.692308 0.000000
10.476190 -2.692308 0.000000
10.666667 -2.692308 0.000000
10.857143 -2.692308 0.000000
11.047619 -2.692308 0.000000
11.238095 -2.692308 0.000000
11.428571 -2.692308 0.000000
11.619048 -2.692308 0.000000
11.809524 -2.692308 0.000000
12.000000 -2.692308 0.000000
0.000000 -2.538462 0.000000
0.190476 -2.538462 0.000000
0.380952 -2.538462 0.000000
0.571429 -2.538462 0.000000
0.761905 -2.538462 0.000000
0.952381 -2.538462 0.000000
1.142857 -2.538462 0.000000
1.333333 -2.538462 0.000000
1.523810 -2.538462 0.000000
1.714286 -2.538462 0.000000
1.904762 -2.538462 0.000000
2.095238 -2.538462 0.000000
2.285714 -2.538462 0.000000
2.476190 -2.538462 0.000000
2.666667 -2.538462 0.000000
2.857143 -2.538462 0.000000
3.047619 -2.538462 0.000000
3.238095 -2.538462 0.000000
3.428571 -2.538462 0.000000
3.619048 -2.538462 0.000000
3.809524 -2.538462 0.000000
4.000000 -2.538462 0.000000
4.190476 -2.538462 0.000000
4.380952 -2.538462 0.000000
4.571429 -2.538462 0.000000
4.761905 -2.538462 0.000000
4.952381 -2.538462 0.000000
5.142857 -2.538462 0.000000
5.333333 -2.538462 0.000000
5.523810 -2.538462 0.000000
5.714286 -2.538462 0.000000
5.904762 -2.538462 0.000000
6.095238 -2.538462 0.000000
6.285714 -2.538462 0.000000
6.476190 -2.538462 0.000000
6.666667 -2.538462 0.000000
6.857143 -2.538462 0.000000
7.047619 -2.538462 0.000000
7.238095 -2.538462 0.000000
7.428571 -2.538462 0.000000
7.619048 -2.538462 0.000000
7.809524 -2.538462 0.000000
8.000000 -2.538462 0.000000
8.190476 -2.538462 0.000000
8.380952 -2.538462 0.000000
8.571429 -2.538462 0.000000
8.761905 -2.538462 0.000000
8.952381 -2.538462 0.000000
9.142857 -2.538462 0.000000
9.333333 -2.538462 0.000000
9.523810 -2.538462 0.000000
9.714286 -2.538462 0.000000
9.904762 -2.538462 0.000000
10.095238 -2.538462 0.000000
10.285714 -2.538462 0.000000
10.476190 -2.538462 0.000000
10.666667 -2.538462 0.000000
10.857143 -2.538462 0.000000
11.047619 -2.538462 0.000000
11.238095 -2.538462 0.000000
11.428571 -2.538462 0.000000
11.619048 -2.538462 0.000000
11.809524 -2.538462 0.000000
12.000000 -2.538462 0.000000
0.000000 -2.384615 0.000000
0.190476 -2.384615 0.000000
0.380952 -2.384615 0.000000
0.571429 -2.384615 0.000000
0.761905 -2.384615 0.000000
0.952381 -2.384615 0.000000
1.142857 -2.384615 0.000000
1.333333 -2.384615 0.000000
1.523810 -2.384615 0.000000
1.714286 -2.384615 0.000000
1.904762 -2.384615 0.000000
2.095238 -2.384615 0.000000
2.285714 -2.384615 0.000000
2.476190 -2.384615 0.000000
2.666667 -2.384615 0.000000
2.857143 -2.384615 0.000000
3.047619 -2.384615 0.000000
3.238095 -2.384615 0.000000
3.428571 -2.384615 0.000000
3.619048 -2.384615 0.000000
3.809524 -2.384615 0.000000
4.000000 -2.384615 0.000000
4.190476 -2.384615 0.000000
4.380952 -2.384615 0.000000
4.571429 -2.384615 0.000000
4.761905 -2.384615 0.000000
4.952381 -2.384615 0.000000
5.142857 -2.384615 0.000000
5.333333 -2.384615 0.000000
5.523810 -2.384615 0.000000
5.714286 -2.384615 0.000000
5.904762 -2.384615 0.000000
6.095238 -2.384615 0.000000
6.285714 -2.384615 0.000000
6.476190 -2.384615 0.000000
6.666667 -2.384615 0.000000
6.857143 -2.384615 0.000000
7.047619 -2.384615 0.000000
7.238095 -2.384615 0.000000
7.428571 -2.384615 0.000000
7.619048 -2.384615 0.000000
7.809524 -2.384615 0.000000
8.000000 -2.384615 0.000000
8.190476 -2.384615 0.000000
8.380952 -2.384615 0.000000
8.571429 -2.384615 0.000000
8.761905 -2.384615 0.000000
8.952381 -2.384615 0.000000
9.142857 -2.384615 0.000000
9.333333 -2.384615 0.000000
9.523810 -2.384615 0.000000
9.714286 -2.384615 0.000000
9.904762 -2.384615 0.000000
10.095238 -2.384615 0.000000
10.285714 -2.384615 0.000000
10.476190 -2.384615 0.000000
10.666667 -2.384615 0.000000
10.857143 -2.384615 0.000000
11.047619 -2.384615 0.000000
11.238095 -2.384615 0.000000
11.428571 -2.384615 0.000000
11.619048 -2.384615 0.000000
11.809524 -2.384615 0.000000
12.000000 -2.384615 0.000000
0.000000 -2.230769 0.000000
0.190476 -2.230769 0.000000
0.380952 -2.230769 0.000000
0.571429 -2.230769 0.000000
0.761905 -2.230769 0.000000
0.952381 -2.230769 0.000000
1.142857 -2.230769 0.000000
1.333333 -2.230769 0.000000
1.523810 -2.230769 0.000000
1.714286 -2.230769 0.000000
1.904762 -2.230769 0.000000
2.095238 -2.230769 0.000000
2.285714 -2.230769 0.000000
2.476190 -2.230769 0.000000
2.666667 -2.230769 0.000000
2.857143 -2.230769 0.000000
3.047619 -2.230769 0.000000
3.238095 -2.230769 0.000000
3.428571 -2.230769 0.000000
3.619048 -2.230769 0.000000
3.809524 -2.230769 0.000000
4.000000 -2.230769 0.000000
4.190476 -2.230769 0.000000
4.380952 -2.230769 0.000000
4.571429 -2.230769 0.000000
4.761905 -2.230769 0.000000
4.952381 -2.230769 0.000000
5.142857 -2.230769 0.000000
5.333333 -2.230769 0.000000
5.523810 -2.230769 0.000000
5.714286 -2.230769 0.000000
[...]
POINT_DATA 2560
SCALARS pressure float 1
LOOKUP_TABLE default
0.522668
0.523609
0.524794
0.526259
0.528045
0.530194
0.532744
0.535735
0.539204
0.543181
0.547688
0.552739
0.558334
0.564458
0.571079
0.578148
0.585594
0.593326
0.601237
0.609198
0.617068
0.624696
0.631921
0.638584
0.644530
0.649611
0.653700
0.656686
0.658488
0.659052
0.658360
0.656423
0.653290
0.649040
0.643780
0.637642
0.630778
0.623349
0.615524
0.607472
0.599354
0.591318
0.583499
0.576010
0.568945
0.562374
0.556348
0.550893
0.546020
0.541721
0.537975
0.534751
0.532007
0.529697
0.527773
0.526185
0.524885
0.523827
0.522969
0.522275
0.521713
0.521255
0.520880
0.520572
0.522528
0.523462
0.524642
0.526104
0.527887
0.530031
0.532574
0.535555
0.539008
0.542962
0.547439
0.552452
0.557999
0.564066
0.570622
0.577617
0.584982
0.592629
0.600451
0.608323
0.616105
0.623650
0.630799
0.637396
0.643287
0.648327
0.652388
0.655362
0.657166
0.657746
0.657080
0.655181
0.652095
0.647896
0.642693
0.636614
0.629808
0.622439
0.614672
0.606677
0.598613
0.590631
0.582864
0.575425
0.568409
0.561887
0.555907
0.550498
0.545671
0.541416
0.537714
0.534531
0.531826
0.529552
0.527661
0.526102
0.524825
0.523786
0.522942
0.522255
0.521695
0.521235
0.520854
0.520536
0.522180
0.523053
0.524160
0.525535
0.527213
0.529230
0.531620
0.534418
0.537653
0.541352
0.545533
0.550207
0.555373
0.561016
0.567108
0.573603
0.580438
0.587532
0.594786
0.602087
0.609307
0.616308
0.622948
0.629079
0.634560
0.639257
0.643050
0.645836
0.647538
0.648104
0.647512
0.645771
0.642923
0.639036
0.634206
0.628555
0.622219
0.615350
0.608106
0.600644
0.593115
0.585660
0.578406
0.571459
0.564909
0.558823
0.553248
0.548211
0.543721
0.539770
0.536338
0.533394
0.530898
0.528805
0.527067
0.525637
0.524467
0.523513
0.522736
0.522099
0.521574
0.521137
0.520767
0.520452
0.521639
0.522399
0.523369
0.524580
0.526058
0.527834
0.529936
0.532390
0.535220
0.538447
0.542085
0.546141
0.550614
0.555492
0.560749
0.566347
0.572233
0.578338
0.584580
0.590863
0.597079
0.603111
0.608837
0.614131
0.618873
0.622946
0.626245
0.628680
0.630181
0.630701
0.630222
0.628751
0.626320
0.622987
0.618830
0.613951
0.608467
0.602512
0.596222
0.589737
0.583190
0.576704
0.570391
0.564347
0.558651
0.553363
0.548525
0.544161
0.540280
0.536873
0.533924
0.531403
0.529273
0.527495
0.526024
0.524817
0.523831
0.523025
0.522364
0.521817
0.521357
0.520965
0.520624
0.520325
0.520928
0.521530
0.522309
0.523288
0.524485
0.525922
0.527618
0.529589
0.531852
0.534420
0.537301
0.540498
0.544010
0.547826
0.551928
0.556286
0.560860
0.565601
0.570447
0.575325
0.580155
0.584849
0.589312
0.593450
0.597167
0.600371
0.602979
0.604916
0.606125
0.606569
0.606232
0.605124
0.603268
0.600704
0.597484
0.593680
0.589383
0.584698
0.579737
0.574613
0.569433
0.564298
0.559299
0.554513
0.550007
0.545829
0.542016
0.538586
0.535548
0.532894
0.530610
0.528671
0.527045
0.525698
0.524592
0.523689
0.522953
0.522350
0.521849
0.521425
0.521057
0.520730
0.520432
0.520158
0.520081
0.520490
0.521036
0.521730
0.522583
0.523604
0.524802
0.526183
0.527752
0.529514
0.531469
0.533619
0.535958
0.538481
0.541175
0.544024
0.547003
0.550085
0.553233
0.556404
0.559550
0.562616
0.565544
0.568273
0.570741
0.572884
0.574642
0.575960
0.576794
0.577120
0.576935
0.576258
0.575107
0.573497
0.571439
0.568961
0.566117
0.562984
0.559645
0.556182
0.552673
0.549188
0.545793
0.542545
0.539491
0.536668
0.534104
0.531813
0.529802
0.528064
0.526589
0.525356
0.524342
0.523517
0.522853
0.522319
0.521886
0.521528
0.521221
0.520947
0.520691
0.520444
0.520201
0.519961
0.519139
0.519332
0.519616
0.519992
0.520459
0.521014
0.521654
0.522373
0.523164
0.524022
0.524942
0.525917
0.526944
0.528019
0.529139
0.530299
0.531496
0.532723
0.533973
0.535236
0.536499
0.537746
0.538957
0.540110
0.541177
0.542127
0.542921
0.543522
0.543898
0.544042
0.543978
0.543753
0.543403
0.542910
0.542213
0.541266
0.540072
0.538682
0.537159
0.535556
0.533917
0.532281
0.530684
0.529157
0.527730
0.526425
0.525259
0.524243
0.523380
0.522667
0.522095
0.521652
0.521321
0.521080
0.520909
0.520787
0.520693
0.520608
0.520518
0.520412
0.520282
0.520125
0.519943
0.519741
0.518149
0.518117
0.518127
0.518170
0.518234
0.518302
0.518359
0.518385
0.518363
0.518276
0.518111
0.517858
0.517512
0.517072
0.516544
0.515938
0.515269
0.514557
0.513823
0.513090
0.512385
0.511729
0.511145
0.510648
0.510246
0.509936
0.509698
0.509499
0.509313
0.509144
0.509068
0.509224
0.509726
0.510527
0.511423
0.512207
0.512806
0.513261
0.513638
0.513977
0.514294
0.514593
0.514876
0.515152
0.515426
0.515709
0.516006
0.516322
0.516660
0.517018
0.517392
0.517775
0.518158
0.518528
0.518874
0.519183
0.519443
0.519646
0.519783
0.519852
0.519853
0.519791
0.519672
0.519510
0.517161
0.516908
0.516650
0.516367
0.516035
0.515626
0.515110
0.514456
0.513635
0.512620
0.511388
0.509927
0.508229
0.506298
0.504149
0.501804
0.499300
0.496678
0.493991
0.491296
0.488653
0.486125
0.483773
0.481650
0.479796
0.478228
0.476927
0.475846
0.474921
0.474146
0.473685
0.473934
0.475275
0.477661
0.480556
0.483385
0.485922
0.488249
0.490503
0.492749
0.494986
0.497185
0.499318
0.501365
0.503314
0.505157
0.506892
0.508519
0.510038
0.511450
0.512755
0.513952
0.515038
0.516011
0.516867
0.517601
0.518212
0.518697
0.519059
0.519301
0.519431
0.519461
0.519404
0.519278
0.516225
0.515769
0.515264
0.514682
0.513987
0.513140
0.512099
0.510821
0.509264
0.507393
0.505179
0.502602
0.499656
0.496348
0.492700
0.488749
0.484547
0.480161
0.475669
0.471159
0.466726
0.462468
0.458482
0.454853
0.451646
0.448883
0.446522
0.444440
0.442446
0.440428
0.438722
0.438353
0.440427
0.444972
0.450709
0.456214
0.460948
0.465141
0.469150
0.473151
0.477153
0.481103
0.484941
0.488622
0.492114
0.495396
0.498458
0.501294
0.503903
0.506289
0.508454
0.510404
0.512143
0.513675
0.515004
0.516135
0.517071
0.517820
0.518390
0.518792
0.519041
0.519154
0.519152
0.519058
0.515388
0.514758
0.514044
0.513208
0.512207
0.510990
0.509503
0.507694
0.505512
0.502913
0.499860
0.496329
0.492312
0.487821
0.482886
0.477556
0.471897
0.465996
0.459954
0.453886
0.447917
0.442174
0.436785
0.431860
0.427476
0.423638
0.420235
0.416967
0.413315
0.408875
0.404314
0.402012
0.404634
0.412388
0.422498
0.431826
0.439234
0.445297
0.450864
0.456364
0.461869
0.467311
0.472605
0.477682
0.482493
0.487006
0.491202
0.495072
0.498616
0.501836
0.504740
0.507339
0.509640
0.511656
0.513395
0.514869
0.516089
0.517066
0.517816
0.518356
0.518706
0.518889
0.518930
0.518860
0.514690
0.513927
0.513054
0.512027
0.510795
0.509297
0.507474
0.505264
0.502613
0.499471
0.495786
0.491519
0.486663
0.481243
0.475303
0.468900
0.462110
0.455033
0.447789
0.440513
0.433352
0.426459
0.419981
0.414045
0.408724
0.403983
0.399575
0.394859
0.388689
0.380113
0.370424
0.364433
0.367441
0.379894
0.396482
0.411203
0.421936
0.429880
0.436741
0.443398
0.450051
0.456637
0.463048
0.469197
0.475022
0.480481
0.485551
0.490219
0.494484
0.498351
0.501830
0.504933
0.507676
0.510071
0.512134
0.513879
0.515322
0.516480
0.517372
0.518019
0.518446
0.518680
0.518751
0.518692
0.514165
0.513317
0.512346
0.511202
0.509828
0.508160
0.506134
0.503697
0.500817
0.497446
0.493462
0.488724
0.483223
0.477086
0.470428
0.463305
0.455773
0.447929
0.439900
0.431837
0.423900
0.416258
0.409071
0.402470
0.396510
0.391086
0.385746
0.379331
0.369756
0.355330
0.338425
0.327333
0.330777
0.349300
0.374166
0.395569
0.410090
0.419811
0.427624
0.435028
0.442407
0.449717
0.456840
0.463672
0.470143
0.476207
0.481835
0.487016
0.491747
0.496034
0.499889
0.503326
0.506361
0.509011
0.511292
0.513221
0.514817
0.516097
0.517084
0.517802
0.518276
0.518539
0.518623
0.518564
0.513836
0.512958
0.511955
0.510776
0.509360
0.507645
0.505585
0.503212
0.500657
0.497914
0.494456
0.489539
0.483153
0.476027
0.468683
0.461132
0.453269
0.445108
0.436759
0.428375
0.420124
0.412179
0.404704
0.397824
0.391564
0.385730
0.379621
0.371465
0.358117
0.337223
0.312642
0.296477
0.300696
0.325574
0.358788
0.386712
0.404679
0.415750
0.424062
0.431751
0.439390
0.446964
0.454347
0.461432
0.468142
0.474431
0.480271
0.485648
0.490561
0.495017
0.499028
0.502606
0.505770
0.508535
0.510917
0.512933
0.514601
0.515940
0.516970
0.517716
0.518207
0.518474
0.518553
0.518480
0.513716
0.512863
0.511897
0.510767
0.509414
0.507791
0.505957
0.504341
0.503840
0.504657
0.504412
0.499621
0.490272
0.479833
0.470679
0.462612
0.454760
0.446736
0.438548
0.430328
0.422242
0.414458
0.407134
0.400380
0.394186
0.388269
0.381706
0.372200
0.355809
0.329904
0.299846
0.280614
0.286071
0.315776
0.354698
0.386707
0.406527
0.418044
0.426272
0.433753
0.441173
0.448535
0.455714
0.462603
0.469131
0.475252
0.480941
0.486188
0.490989
0.495353
0.499290
0.502812
0.505934
0.508668
0.511029
0.513031
0.514688
0.516017
0.517036
0.517769
0.518243
0.518489
0.518543
0.518444
0.513805
0.513032
0.512170
0.511171
0.509985
0.508623
0.507508
0.508435
0.514935
0.527934
0.538698
0.534333
0.514822
0.493039
0.477717
0.467937
0.460189
0.452716
0.445154
0.437572
0.430117
0.422948
0.416205
0.409977
0.404223
0.398599
0.392059
0.382094
0.364580
0.337159
0.306114
0.287243
0.294219
0.325545
0.365215
0.396944
0.415968
0.426644
0.434118
0.440900
0.447638
0.454328
0.460851
0.467110
0.473043
0.478613
0.483799
0.488594
0.492998
0.497015
0.500654
0.503925
0.506837
0.509399
0.511620
0.513507
0.515071
0.516323
0.517278
0.517956
0.518381
0.518583
0.518595
0.518456
0.514093
0.513448
0.512751
0.511959
0.511040
0.510155
0.510651
0.517803
0.541848
0.585557
0.624014
0.620359
0.574554
0.523434
0.491933
0.477295
0.469297
0.462689
0.456175
0.449663
0.443268
0.437127
0.431359
0.426030
0.421073
0.416129
0.410183
0.400924
0.384771
0.360089
0.333136
0.318157
0.326545
0.355636
0.390451
0.417107
0.432502
0.441015
0.447094
0.452733
0.458378
0.463983
0.469440
0.474672
0.479635
0.484303
0.488665
0.492717
0.496459
0.499896
0.503032
0.505873
0.508422
0.510681
0.512650
0.514331
0.515726
0.516840
0.517682
0.518266
0.518613
0.518748
0.518703
0.518514
0.514556
0.514083
0.513602
0.513079
0.512517
0.512350
0.515626
0.534043
0.590213
0.690306
0.779554
0.776866
0.682143
0.576452
0.514637
0.490553
0.481588
0.476055
0.470941
0.465866
0.460894
0.456133
0.451675
0.447562
0.443714
0.439802
0.434975
0.427450
0.414699
0.396024
0.376826
0.368035
0.377340
0.400998
0.426698
0.444829
0.454637
0.460088
0.464325
0.468491
0.472719
0.476903
0.480955
0.484828
0.488504
0.491975
0.495240
0.498300
0.501159
0.503817
0.506277
0.508536
0.510591
0.512434
0.514057
0.515452
0.516613
0.517536
0.518223
0.518681
0.518925
0.518975
0.518860
0.518612
0.515165
0.514895
0.514668
0.514462
0.514322
0.515027
0.521784
0.554438
0.651288
0.822801
0.976383
0.974898
0.818065
0.643076
0.542724
0.506565
0.496275
0.492003
0.488560
0.485200
0.481926
0.478812
0.475919
0.473264
0.470764
0.468147
0.464797
0.459574
0.451120
0.439609
0.429192
0.426866
0.436189
0.452609
0.467408
0.475980
0.479862
0.482200
0.484555
0.487130
0.489753
0.492290
0.494692
0.496961
0.499112
0.501162
0.503124
0.505006
0.506811
0.508540
0.510190
0.511751
0.513210
0.514550
0.515753
0.516801
0.517677
0.518369
0.518868
0.519175
0.519297
0.519250
0.519056
0.518745
0.515881
0.515832
0.515883
0.516021
0.516326
0.517836
0.527348
0.570700
0.697726
0.922030
1.123203
1.123109
0.921066
0.695598
0.567432
0.522956
0.512284
0.509552
0.507965
0.506496
0.505093
0.503791
0.502621
0.501575
0.500570
0.499397
0.497665
0.494797
0.490367
0.485133
0.481960
0.484260
0.491969
0.500292
0.504563
0.504960
0.504525
0.504976
0.506123
0.507356
0.508389
0.509190
0.509813
0.510333
0.510816
0.511309
0.511840
0.512426
0.513073
0.513779
0.514534
0.515322
0.516120
0.516902
0.517637
0.518298
0.518856
0.519288
0.519579
0.519719
0.519708
0.519556
0.519280
0.518904
0.516658
0.516838
0.517173
0.517661
0.518391
0.520415
0.530539
0.574612
0.702477
0.927741
1.130005
1.131173
0.930515
0.706556
0.580024
0.537293
0.528457
0.527629
0.527985
0.528470
0.528995
0.529563
0.530168
0.530779
0.531313
0.531614
0.531460
0.530653
0.529317
0.528368
0.529394
0.532853
0.536026
0.534988
0.529848
0.525073
0.523859
0.525312
0.527003
0.527697
0.527424
0.526559
0.525398
0.524137
0.522910
0.521803
0.520862
0.520114
0.519567
0.519216
0.519046
0.519033
0.519146
0.519346
0.519595
0.519851
0.520076
0.520239
0.520313
0.520280
0.520133
0.519875
0.519516
0.519078
0.517451
0.517852
0.518460
0.519282
0.520394
0.522609
0.531166
0.565939
0.665257
0.839607
0.996427
0.998615
0.845840
0.675290
0.579743
0.548713
0.543819
0.545143
0.547415
0.549799
0.552195
0.554575
0.556901
0.559115
0.561131
0.562829
0.564094
0.564932
0.565664
0.566952
0.568947
0.569447
0.563992
0.551166
0.537177
0.530540
0.533212
0.539988
0.545091
0.546657
0.545643
0.543338
0.540506
0.537542
0.534668
0.532014
0.529649
0.527609
0.525903
0.524525
0.523455
0.522662
0.522105
0.521737
0.521507
0.521366
0.521266
0.521164
0.521025
0.520824
0.520546
0.520187
0.519752
0.519258
0.518213
0.518814
0.519668
0.520790
0.522231
0.524479
0.530633
0.552443
0.612565
0.717211
0.811650
0.814810
0.726572
0.627983
0.573853
0.557973
0.557640
0.561059
0.565089
0.569201
0.573301
0.577328
0.581215
0.584881
0.588230
0.591163
0.593623
0.595699
0.597693
0.599736
0.600310
0.594544
0.576931
0.550101
0.527316
0.520997
0.531257
0.547403
0.558953
0.563008
0.561950
0.558527
0.554236
0.549745
0.545384
0.541330
0.537674
0.534461
0.531702
0.529389
0.527498
0.525992
0.524821
0.523930
0.523261
0.522754
0.522353
0.522006
0.521672
0.521318
0.520922
0.520473
0.519974
0.519433
0.518901
0.519668
0.520727
0.522097
0.523812
0.526102
0.530382
0.541995
0.571240
0.620939
0.666220
0.670242
0.632957
0.591175
0.569778
0.565924
0.569275
0.574439
0.579948
0.585516
0.591049
0.596462
0.601659
0.606541
0.610998
0.614937
0.618329
0.621286
0.624005
0.626032
0.624219
0.611241
0.581119
0.540857
0.510054
0.504477
0.522845
0.549443
0.568697
0.576113
0.575489
0.571262
0.565781
0.560022
0.554419
0.549195
0.544459
0.540261
0.536618
0.533518
0.530934
0.528823
0.527131
0.525795
0.524751
0.523930
0.523272
0.522716
0.522216
0.521733
0.521238
0.520718
0.520167
0.519592
0.519476
0.520367
0.521576
0.523127
0.525046
0.527427
0.530774
0.536962
0.549593
0.569656
0.588464
0.593146
0.583679
0.572906
0.569498
0.572435
0.578072
0.584482
0.591101
0.597768
0.604382
0.610837
0.617019
0.622809
0.628088
0.632760
0.636800
0.640317
0.643414
0.645231
0.641543
0.623457
0.584875
0.535704
0.499373
0.493822
0.517287
0.551081
0.575989
0.585973
0.585691
0.580851
0.574472
0.567763
0.561236
0.555140
0.549598
0.544665
0.540358
0.536666
0.533558
0.530988
0.528898
0.527222
0.525888
0.524826
0.523968
0.523252
0.522624
0.522043
0.521476
0.520905
0.520321
0.519728
0.519908
0.520873
0.522168
0.523821
0.525858
0.528320
0.531357
0.535484
0.541675
0.550203
0.558736
0.563817
0.565431
0.567012
0.570864
0.576682
0.583445
0.590583
0.597882
0.605226
0.612505
0.619600
0.626385
0.632728
0.638500
0.643599
0.647994
0.651773
0.654993
0.656707
0.652573
0.633587
0.593675
0.542957
0.505215
0.498846
0.522410
0.556993
0.582640
0.592786
0.592169
0.586781
0.579806
0.572512
0.565429
0.558812
0.552787
0.547412
0.542703
0.538648
0.535217
0.532360
0.530019
0.528125
0.526605
0.525387
0.524400
0.523580
0.522871
0.522230
0.521622
0.521024
0.520428
0.519832
0.520176
0.521160
0.522472
0.524142
0.526197
0.528663
0.531589
0.535093
0.539388
0.544537
0.550062
0.555248
0.560084
0.565262
0.571233
0.577899
0.585003
0.592369
0.599884
0.607444
0.614934
0.622230
0.629201
0.635709
0.641623
0.646833
0.651292
0.655061
0.658185
0.659911
0.656692
0.640931
0.606887
0.562354
0.527920
0.520434
0.539249
0.567872
0.588800
0.596338
0.594586
0.588708
0.581467
0.573987
0.566749
0.559993
0.553839
0.548341
0.543515
0.539349
0.535814
0.532860
0.530430
0.528454
0.526862
0.525581
0.524542
0.523681
0.522943
0.522283
0.521666
0.521069
0.520482
0.519902
0.520272
0.521217
0.522475
0.524075
0.526043
0.528401
0.531174
0.534395
0.538109
0.542334
0.546998
0.551985
0.557287
0.562997
0.569161
0.575730
0.582615
0.589730
0.596988
0.604288
0.611522
0.618567
0.625296
0.631574
0.637273
0.642280
0.646532
0.650056
0.652895
0.654595
0.652835
0.642336
0.618379
0.585345
0.558055
0.549905
0.561129
0.579583
0.592475
0.595839
0.592624
0.586466
0.579341
0.572095
0.565119
0.558617
0.552694
0.547400
0.542750
0.538732
0.535318
0.532462
0.530108
0.528192
0.526645
0.525399
0.524388
0.523551
0.522835
0.522197
0.521606
0.521037
0.520480
0.519932
0.520195
0.521048
0.522185
0.523631
0.525409
0.527540
0.530040
0.532928
0.536217
0.539918
0.544023
0.548519
0.553395
0.558650
0.564266
0.570204
0.576412
0.582824
0.589365
0.595947
0.602470
0.608826
0.614897
0.620562
0.625702
0.630209
0.634012
0.637104
0.639518
0.641045
0.640461
0.634773
0.620831
0.600299
0.581717
0.573913
0.577712
0.585910
0.590905
0.590419
0.586133
0.580113
0.573534
0.566946
0.560637
0.554767
0.549424
0.544651
0.540459
0.536839
0.533764
0.531195
0.529079
0.527358
0.525970
0.524853
0.523946
0.523196
0.522554
0.521980
0.521446
0.520931
0.520425
0.519925
0.519958
0.520670
0.521624
0.522841
0.524339
0.526133
0.528234
0.530655
0.533401
0.536480
0.539891
0.543630
0.547690
0.552059
0.556715
0.561630
0.566764
0.572065
0.577474
0.582919
0.588320
0.593585
0.598620
0.603322
0.607592
0.611336
0.614483
0.617006
0.618916
0.620142
0.620158
0.617565
0.610682
0.599837
0.588882
0.582455
0.581472
0.582684
0.582499
0.579800
0.575308
0.569971
0.564376
0.558846
0.553574
0.548681
0.544233
0.540264
0.536786
0.533790
0.531252
0.529140
0.527407
0.526005
0.524879
0.523977
0.523246
0.522639
0.522116
0.521643
0.521195
0.520757
0.520319
0.519883
0.519584
0.520114
0.520836
0.521762
0.522903
0.524269
0.525864
0.527692
0.529756
0.532056
0.534589
0.537353
0.540341
0.543542
0.546942
0.550521
0.554253
0.558104
0.562032
0.565989
0.569920
0.573759
0.577439
0.580886
0.584026
0.586788
0.589113
0.590968
0.592349
0.593235
0.593437
0.592402
0.589386
0.584317
0.578561
0.574064
0.571484
0.569777
0.567618
0.564538
0.560759
0.556631
0.552413
0.548282
0.544360
0.540729
0.537437
0.534512
0.531959
0.529775
0.527940
0.526426
0.525199
0.524219
0.523443
0.522827
0.522330
0.521915
0.521549
0.521207
0.520870
0.520527
0.520173
0.519810
0.519105
0.519424
0.519875
0.520465
0.521195
0.522066
0.523076
0.524219
0.525492
0.526889
0.528405
0.530033
0.531768
0.533604
0.535533
0.537547
0.539635
0.541782
0.543972
0.546180
0.548381
0.550544
0.552632
0.554605
0.556422
0.558042
0.559427
0.560551
0.561406
0.561983
0.562222
0.561928
0.560808
0.558751
0.556134
0.553630
0.551594
0.549825
0.547952
0.545806
0.543425
0.540912
0.538373
0.535897
0.533554
0.531396
0.529455
0.527747
0.526278
0.525044
0.524033
0.523225
0.522595
0.522113
0.521750
0.521474
0.521255
0.521066
0.520887
0.520698
0.520489
0.520255
0.519994
0.519713
0.518560
0.518649
0.518809
0.519037
0.519324
0.519663
0.520042
0.520448
0.520868
0.521291
0.521707
0.522106
0.522485
0.522842
0.523176
0.523491
0.523793
0.524089
0.524386
0.524691
0.525010
0.525347
0.525702
0.526073
0.526455
0.526839
0.527217
0.527580
0.527925
0.528250
0.528533
0.528705
0.528652
0.528294
0.527695
0.527044
0.526486
0.526019
0.525558
0.525039
0.524446
0.523794
0.523115
0.522445
0.521817
0.521255
0.520776
0.520387
0.520093
0.519892
0.519776
0.519736
0.519755
0.519818
0.519906
0.520001
0.520086
0.520146
0.520169
0.520147
0.520077
0.519959
0.519797
0.519602
0.517990
0.517847
0.517711
0.517572
0.517411
0.517211
0.516951
0.516609
0.516165
0.515600
0.514899
0.514052
0.513053
0.511905
0.510617
0.509203
0.507686
0.506095
0.504463
0.502827
0.501226
0.499700
0.498288
0.497026
0.495947
0.495077
0.494437
0.494042
0.493904
0.494026
0.494400
0.494992
0.495747
0.496605
0.497543
0.498580
0.499738
0.501009
0.502350
0.503711
0.505050
0.506341
0.507575
0.508750
0.509866
0.510926
0.511932
0.512886
0.513787
0.514637
0.515434
0.516176
0.516859
0.517477
0.518027
0.518501
0.518897
0.519210
0.519440
0.519588
0.519657
0.519656
0.519594
0.519484
0.517441
0.517075
0.516657
0.516167
0.515578
0.514864
0.513994
0.512938
0.511669
0.510160
0.508393
0.506355
0.504040
0.501454
0.498614
0.495546
0.492289
0.488891
0.485411
0.481916
0.478475
0.475165
0.472060
0.469235
0.466757
0.464688
0.463079
0.461969
0.461387
0.461344
0.461838
0.462845
0.464322
0.466212
0.468458
0.471011
0.473825
0.476845
0.480005