# vtk DataFile Version 3.0
structured grid
ASCII
DATASET STRUCTURED_GRID
DIMENSIONS 64 40 1
POINTS 2560 float
0.000000 -3.000000 0.000000
0.190476 -3.000000 0.000000
0.380952 -3.000000 0.000000
0.571429 -3.000000 0.000000
0.761905 -3.000000 0.000000
0.952381 -3.000000 0.000000
1.142857 -3.000000 0.000000
1.333333 -3.000000 0.000000
1.523810 -3.000000 0.000000
1.714286 -3.000000 0.000000
1.904762 -3.000000 0.000000
2.095238 -3.000000 0.000000
2.285714 -3.000000 0.000000
2.476190 -3.000000 0.000000
2.666667 -3.000000 0.000000
2.857143 -3.000000 0.000000
3.047619 -3.000000 0.000000
3.238095 -3.000000 0.000000
3.428571 -3.000000 0.000000
3.619048 -3.000000 0.000000
3.809524 -3.000000 0.000000
4.000000 -3.000000 0.000000
4.190476 -3.000000 0.000000
4.380952 -3.000000 0.000000
4.571429 -3.000000 0.000000
4.761905 -3.000000 0.000000
4.952381 -3.000000 0.000000
5.142857 -3.000000 0.000000
5.333333 -3.000000 0.000000
5.523810 -3.000000 0.000000
5.714286 -3.000000 0.000000
5.904762 -3.000000 0.000000
6.095238 -3.000000 0.000000
6.285714 -3.000000 0.000000
6.476190 -3.000000 0.000000
6.666667 -3.000000 0.000000
6.857143 -3.000000 0.000000
7.047619 -3.000000 0.000000
7.238095 -3.000000 0.000000
7.428571 -3.000000 0.000000
7.619048 -3.000000 0.000000
7.809524 -3.000000 0.000000
8.000000 -3.000000 0.000000
8.190476 -3.000000 0.000000
8.380952 -3.000000 0.000000
8.571429 -3.000000 0.000000
8.761905 -3.000000 0.000000
8.952381 -3.000000 0.000000
9.142857 -3.000000 0.000000
9.333333 -3.000000 0.000000
9.523810 -3.000000 0.000000
9.714286 -3.000000 0.000000
9.904762 -3.000000 0.000000
10.095238 -3.000000 0.000000
10.285714 -3.000000 0.000000
10.476190 -3.000000 0.000000
10.666667 -3.000000 0.000000
10.857143 -3.000000 0.000000
11.047619 -3.000000 0.000000
11.238095 -3.000000 0.000000
11.428571 -3.000000 0.000000
11.619048 -3.000000 0.000000
11.809524 -3.000000 0.000000
12.000000 -3.000000 0.000000
0.000000 -2.846154 0.000000
0.190476 -2.846154 0.000000
0.380952 -2.846154 0.000000
0.571429 -2.846154 0.000000
0.761905 -2.846154 0.000000
0.952381 -2.846154 0.000000
1.142857 -2.846154 0.000000
1.333333 -2.846154 0.000000
1.523810 -2.846154 0.000000
1.714286 -2.846154 0.000000
1.904762 -2.846154 0.000000
2.095238 -2.846154 0.000000
2.285714 -2.846154 0.000000
2.476190 -2.846154 0.000000
2.666667 -2.846154 0.000000
2.857143 -2.846154 0.000000
3.047619 -2.846154 0.000000
3.238095 -2.846154 0.000000
3.428571 -2.846154 0.000000
3.619048 -2.846154 0.000000
3.809524 -2.846154 0.000000
4.000000 -2.846154 0.000000
4.190476 -2.846154 0.000000
4.380952 -2.846154 0.000000
4.571429 -2.846154 0.000000
4.761905 -2.846154 0.000000
4.952381 -2.846154 0.000000
5.142857 -2.846154 0.000000
5.333333 -2.846154 0.000000
5.523810 -2.846154 0.000000
5.714286 -2.846154 0.000000
5.904762 -2.846154 0.000000
6.095238 -2.846154 0.000000
6.285714 -2.846154 0.000000
6.476190 -2.846154 0.000000
6.666667 -2.846154 0.000000
6.857143 -2.846154 0.000000
7.047619 -2.846154 0.000000
7.238095 -2.846154 0.000000
7.428571 -2.846154 0.000000
7.619048 -2.846154 0.000000
7.809524 -2.846154 0.000000
8.000000 -2.846154 0.000000
8.190476 -2.846154 0.000000
8.380952 -2.846154 0.000000
8.571429 -2.846154 0.000000
8.761905 -2.846154 0.000000
8.952381 -2.846154 0.000000
9.142857 -2.846154 0.000000
9.333333 -2.846154 0.000000
9.523810 -2.846154 0.000000
9.714286 -2.846154 0.000000
9.904762 -2.846154 0.000000
10.095238 -2.846154 0.000000
10.285714 -2.846154 0.000000
10.476190 -2.846154 0.000000
10.666667 -2.846154 0.000000
10.857143 -2.846154 0.000000
11.047619 -2.846154 0.000000
11.238095 -2.846154 0.000000
11.428571 -2.846154 0.000000
11.619048 -2.846154 0.000000
11.809524 -2.846154 0.000000
12.000000 -2.846154 0.000000
0.000000 -2.692308 0.000000
0.190476 -2.692308 0.000000
0.380952 -2.692308 0.000000
0.571429 -2.692308 0.000000
0.761905 -2.692308 0.000000
0.952381 -2.692308 0.000000
1.142857 -2.692308 0.000000
1.333333 -2.692308 0.000000
1.523810 -2.692308 0.000000
1.714286 -2.692308 0.000000
1.904762 -2.692308 0.000000
2.095238 -2.692308 0.000000
2.285714 -2.692308 0.000000
2.476190 -2.692308 0.000000
2.666667 -2.692308 0.000000
2.857143 -2.692308 0.000000
3.047619 -2.692308 0.000000
3.238095 -2.692308 0.000000
3.428571 -2.692308 0.000000
3.619048 -2.692308 0.000000
3.809524 -2.692308 0.000000
4.000000 -2.692308 0.000000
4.190476 -2.692308 0.000000
4.380952 -2.692308 0.000000
4.571429 -2.692308 0.000000
4.761905 -2.692308 0.000000
4.952381 -2.692308 0.000000
5.142857 -2.692308 0.000000
5.333333 -2.692308 0.000000
5.523810 -2.692308 0.000000
5.714286 -2.692308 0.000000
5.904762 -2.692308 0.000000
6.095238 -2.692308 0.000000
6.285714 -2.692308 0.000000
6.476190 -2.692308 0.000000
6.666667 -2.692308 0.000000
6.857143 -2.692308 0.000000
7.047619 -2.692308 0.000000
7.238095 -2.692308 0.000000
7.428571 -2.692308 0.000000
7.619048 -2.692308 0.000000
7.809524 -2.692308 0.000000
8.000000 -2.692308 0.000000
8.190476 -2.692308 0.000000
8.380952 -2.692308 0.000000
8.571429 -2.692308 0.000000
8.761905 -2.692308 0.000000
8.952381 -2.692308 0.000000
9.142857 -2.692308 0.000000
9.333333 -2.692308 0.000000
9.523810 -2.692308 0.000000
9.714286 -2.692308 0.000000
9.904762 -2.692308 0.000000
10.095238 -2.692308 0.000000
10.285714 -2.692308 0.000000
10.476190 -2.692308 0.000000
10.666667 -2.692308 0.000000
10.857143 -2.692308 0.000000
11.047619 -2.692308 0.000000
11.238095 -2.692308 0.000000
11.428571 -2.692308 0.000000
11.619048 -2.692308 0.000000
11.809524 -2.692308 0.000000
12.000000 -2.692308 0.000000
0.000000 -2.538462 0.000000
0.190476 -2.538462 0.000000
0.380952 -2.538462 0.000000
0.571429 -2.538462 0.000000
0.761905 -2.538462 0.000000
0.952381 -2.538462 0.000000
1.142857 -2.538462 0.000000
1.333333 -2.538462 0.000000
1.523810 -2.538462 0.000000
1.714286 -2.538462 0.000000
1.904762 -2.538462 0.000000
2.095238 -2.538462 0.000000
2.285714 -2.538462 0.000000
2.476190 -2.538462 0.000000
2.666667 -2.538462 0.000000
2.857143 -2.538462 0.000000
3.047619 -2.538462 0.000000
3.238095 -2.538462 0.000000
3.428571 -2.538462 0.000000
3.619048 -2.538462 0.000000
3.809524 -2.538462 0.000000
4.000000 -2.538462 0.000000
4.190476 -2.538462 0.000000
4.380952 -2.538462 0.000000
4.571429 -2.538462 0.000000
4.761905 -2.538462 0.000000
4.952381 -2.538462 0.000000
5.142857 -2.538462 0.000000
5.333333 -2.538462 0.000000
5.523810 -2.538462 0.000000
5.714286 -2.538462 0.000000
5.904762 -2.538462 0.000000
6.095238 -2.538462 0.000000
6.285714 -2.538462 0.000000
6.476190 -2.538462 0.000000
6.666667 -2.538462 0.000000
6.857143 -2.538462 0.000000
7.047619 -2.538462 0.000000
7.238095 -2.538462 0.000000
7.428571 -2.538462 0.000000
7.619048 -2.538462 0.000000
7.809524 -2.538462 0.000000
8.000000 -2.538462 0.000000
8.190476 -2.538462 0.000000
8.380952 -2.538462 0.000000
8.571429 -2.538462 0.000000
8.761905 -2.538462 0.000000
8.952381 -2.538462 0.000000
9.142857 -2.538462 0.000000
9.333333 -2.538462 0.000000
9.523810 -2.538462 0.000000
9.714286 -2.538462 0.000000
9.904762 -2.538462 0.000000
10.095238 -2.538462 0.000000
10.285714 -2.538462 0.000000
10.476190 -2.538462 0.000000
10.666667 -2.538462 0.000000
10.857143 -2.538462 0.000000
11.047619 -2.538462 0.000000
11.238095 -2.538462 0.000000
11.428571 -2.538462 0.000000
11.619048 -2.538462 0.000000
11.809524 -2.538462 0.000000
12.000000 -2.538462 0.000000
0.000000 -2.384615 0.000000
0.190476 -2.384615 0.000000
0.380952 -2.384615 0.000000
0.571429 -2.384615 0.000000
0.761905 -2.384615 0.000000
0.952381 -2.384615 0.000000
1.142857 -2.384615 0.000000
1.333333 -2.384615 0.000000
1.523810 -2.384615 0.000000
1.714286 -2.384615 0.000000
1.904762 -2.384615 0.000000
2.095238 -2.384615 0.000000
2.285714 -2.384615 0.000000
2.476190 -2.384615 0.000000
2.666667 -2.384615 0.000000
2.857143 -2.384615 0.000000
3.047619 -2.384615 0.000000
3.238095 -2.384615 0.000000
3.428571 -2.384615 0.000000
3.619048 -2.384615 0.000000
3.809524 -2.384615 0.000000
4.000000 -2.384615 0.000000
4.190476 -2.384615 0.000000
4.380952 -2.384615 0.000000
4.571429 -2.384615 0.000000
4.761905 -2.384615 0.000000
4.952381 -2.384615 0.000000
5.142857 -2.384615 0.000000
5.333333 -2.384615 0.000000
5.523810 -2.384615 0.000000
5.714286 -2.384615 0.000000
5.904762 -2.384615 0.000000
6.095238 -2.384615 0.000000
6.285714 -2.384615 0.000000
6.476190 -2.384615 0.000000
6.666667 -2.384615 0.000000
6.857143 -2.384615 0.000000
7.047619 -2.384615 0.000000
7.238095 -2.384615 0.000000
7.428571 -2.384615 0.000000
7.619048 -2.384615 0.000000
7.809524 -2.384615 0.000000
8.000000 -2.384615 0.000000
8.190476 -2.384615 0.000000
8.380952 -2.384615 0.000000
8.571429 -2.384615 0.000000
8.761905 -2.384615 0.000000
8.952381 -2.384615 0.000000
9.142857 -2.384615 0.000000
9.333333 -2.384615 0.000000
9.523810 -2.384615 0.000000
9.714286 -2.384615 0.000000
9.904762 -2.384615 0.000000
10.095238 -2.384615 0.000000
10.285714 -2.384615 0.000000
10.476190 -2.384615 0.000000
10.666667 -2.384615 0.000000
10.857143 -2.384615 0.000000
11.047619 -2.384615 0.000000
11.238095 -2.384615 0.000000
11.428571 -2.384615 0.000000
11.619048 -2.384615 0.000000
11.809524 -2.384615 0.000000
12.000000 -2.384615 0.000000
0.000000 -2.230769 0.000000
0.190476 -2.230769 0.000000
0.380952 -2.230769 0.000000
0.571429 -2.230769 0.000000
0.761905 -2.230769 0.000000
0.952381 -2.230769 0.000000
1.142857 -2.230769 0.000000
1.333333 -2.230769 0.000000
1.523810 -2.230769 0.000000
1.714286 -2.230769 0.000000
1.904762 -2.230769 0.000000
2.095238 -2.230769 0.000000
2.285714 -2.230769 0.000000
2.476190 -2.230769 0.000000
2.666667 -2.230769 0.000000
2.857143 -2.230769 0.000000
3.047619 -2.230769 0.000000
3.238095 -2.230769 0.000000
3.428571 -2.230769 0.000000
3.619048 -2.230769 0.000000
3.809524 -2.230769 0.000000
4.000000 -2.230769 0.000000
4.190476 -2.230769 0.000000
4.380952 -2.230769 0.000000
4.571429 -2.230769 0.000000
4.761905 -2.230769 0.000000
4.952381 -2.230769 0.000000
5.142857 -2.230769 0.000000
5.333333 -2.230769 0.000000
5.523810 -2.230769 0.000000
5.714286 -2.230769 0.000000
[...]
POINT_DATA 2560
SCALARS pressure float 1
LOOKUP_TABLE default
0.516317
0.515394
0.514262
0.512880
0.511202
0.509180
0.506763
0.503905
0.500558
0.496686
0.492255
0.487250
0.481665
0.475515
0.468833
0.461673
0.454112
0.446247
0.438195
0.430094
0.422095
0.414358
0.407051
0.400341
0.394385
0.389333
0.385312
0.382425
0.380749
0.380326
0.381167
0.383246
0.386505
0.390857
0.396185
0.402355
0.409214
0.416600
0.424349
0.432297
0.440293
0.448195
0.455880
0.463242
0.470197
0.476683
0.482655
0.488089
0.492977
0.497325
0.501151
0.504482
0.507350
0.509794
0.511851
0.513564
0.514970
0.516109
0.517016
0.517725
0.518266
0.518668
0.518956
0.519154
0.516233
0.515321
0.514205
0.512845
0.511194
0.509204
0.506824
0.504005
0.500702
0.496875
0.492492
0.487535
0.482000
0.475901
0.469271
0.462165
0.454658
0.446849
0.438856
0.430813
0.422873
0.415196
0.407947
0.401292
0.395390
0.390385
0.386406
0.383553
0.381903
0.381496
0.382341
0.384413
0.387655
0.391976
0.397265
0.403383
0.410182
0.417499
0.425173
0.433042
0.440956
0.448775
0.456378
0.463662
0.470544
0.476962
0.482875
0.488258
0.493104
0.497418
0.501219
0.504532
0.507389
0.509825
0.511880
0.513592
0.514998
0.516136
0.517040
0.517745
0.518279
0.518671
0.518947
0.519130
0.516323
0.515476
0.514447
0.513195
0.511676
0.509845
0.507652
0.505051
0.501997
0.498451
0.494384
0.489777
0.484626
0.478944
0.472763
0.466134
0.459129
0.451840
0.444379
0.436874
0.429466
0.422306
0.415548
0.409348
0.403854
0.399200
0.395505
0.392865
0.391345
0.390986
0.391792
0.393740
0.396773
0.400810
0.405741
0.411442
0.417769
0.424575
0.431707
0.439018
0.446366
0.453624
0.460680
0.467439
0.473827
0.479787
0.485281
0.490287
0.494799
0.498822
0.502373
0.505474
0.508153
0.510443
0.512378
0.513992
0.515319
0.516392
0.517242
0.517900
0.518394
0.518749
0.518992
0.519144
0.516571
0.515843
0.514965
0.513902
0.512614
0.511060
0.509195
0.506976
0.504362
0.501318
0.497816
0.493840
0.489384
0.484461
0.479098
0.473340
0.467252
0.460915
0.454428
0.447904
0.441466
0.435248
0.429384
0.424008
0.419251
0.415229
0.412046
0.409783
0.408496
0.408215
0.408944
0.410658
0.413309
0.416822
0.421104
0.426044
0.431520
0.437401
0.443557
0.449862
0.456194
0.462445
0.468520
0.474340
0.479842
0.484978
0.489718
0.494045
0.497952
0.501444
0.504535
0.507244
0.509592
0.511606
0.513313
0.514740
0.515914
0.516862
0.517610
0.518183
0.518605
0.518899
0.519088
0.519192
0.516955
0.516390
0.515720
0.514916
0.513944
0.512769
0.511354
0.509660
0.507653
0.505302
0.502582
0.499479
0.495988
0.492118
0.487891
0.483345
0.478533
0.473520
0.468388
0.463228
0.458139
0.453228
0.448600
0.444365
0.440624
0.437475
0.434999
0.433261
0.432298
0.432130
0.432753
0.434144
0.436262
0.439048
0.442427
0.446311
0.450604
0.455203
0.460007
0.464917
0.469843
0.474700
0.479419
0.483939
0.488215
0.492212
0.495909
0.499294
0.502361
0.505116
0.507568
0.509728
0.511613
0.513239
0.514624
0.515786
0.516744
0.517516
0.518120
0.518575
0.518898
0.519109
0.519227
0.519270
0.517441
0.517075
0.516657
0.516167
0.515578
0.514864
0.513994
0.512938
0.511669
0.510160
0.508393
0.506355
0.504040
0.501454
0.498614
0.495546
0.492288
0.488891
0.485410
0.481912
0.478464
0.475139
0.472007
0.469144
0.466626
0.464527
0.462912
0.461823
0.461274
0.461261
0.461767
0.462771
0.464243
0.466144
0.468423
0.471020
0.473870
0.476906
0.480062
0.483274
0.486485
0.489645
0.492711
0.495649
0.498432
0.501043
0.503470
0.505707
0.507752
0.509608
0.511278
0.512769
0.514087
0.515238
0.516229
0.517067
0.517760
0.518315
0.518743
0.519053
0.519256
0.519367
0.519400
0.519370
0.517990
0.517847
0.517711
0.517572
0.517411
0.517211
0.516951
0.516609
0.516165
0.515600
0.514899
0.514052
0.513053
0.511905
0.510617
0.509203
0.507686
0.506094
0.504460
0.502816
0.501194
0.499622
0.498131
0.496755
0.495552
0.494592
0.493938
0.493609
0.493577
0.493790
0.494204
0.494798
0.495560
0.496475
0.497525
0.498682
0.499917
0.501203
0.502512
0.503821
0.505113
0.506372
0.507587
0.508754
0.509867
0.510927
0.511932
0.512886
0.513787
0.514637
0.515434
0.516176
0.516859
0.517477
0.518027
0.518501
0.518897
0.519210
0.519440
0.519588
0.519657
0.519656
0.519594
0.519484
0.518560
0.518649
0.518809
0.519037
0.519324
0.519663
0.520042
0.520448
0.520868
0.521291
0.521707
0.522106
0.522485
0.522842
0.523176
0.523491
0.523793
0.524087
0.524377
0.524660
0.524921
0.525132
0.525264
0.525311
0.525334
0.525458
0.525800
0.526367
0.527032
0.527628
0.528048
0.528269
0.528314
0.528209
0.527977
0.527628
0.527174
0.526626
0.526001
0.525317
0.524598
0.523865
0.523143
0.522455
0.521820
0.521256
0.520776
0.520387
0.520093
0.519892
0.519776
0.519736
0.519755
0.519818
0.519906
0.520001
0.520086
0.520146
0.520169
0.520147
0.520077
0.519959
0.519797
0.519602
0.519105
0.519424
0.519875
0.520465
0.521195
0.522066
0.523076
0.524219
0.525492
0.526889
0.528405
0.530033
0.531768
0.533604
0.535533
0.537547
0.539634
0.541777
0.543948
0.546101
0.548156
0.549998
0.551497
0.552590
0.553404
0.554284
0.555585
0.557322
0.559108
0.560467
0.561140
0.561121
0.560515
0.559428
0.557942
0.556115
0.553997
0.551644
0.549112
0.546463
0.543760
0.541064
0.538432
0.535916
0.533560
0.531398
0.529455
0.527747
0.526278
0.525044
0.524033
0.523225
0.522595
0.522113
0.521750
0.521474
0.521255
0.521066
0.520887
0.520698
0.520489
0.520255
0.519994
0.519713
0.519584
0.520114
0.520836
0.521762
0.522903
0.524269
0.525864
0.527692
0.529756
0.532056
0.534589
0.537353
0.540341
0.543542
0.546942
0.550521
0.554251
0.558091
0.561979
0.565809
0.569400
0.572476
0.574697
0.575871
0.576335
0.577110
0.579263
0.582857
0.586799
0.589805
0.591279
0.591304
0.590201
0.588245
0.585613
0.582423
0.578770
0.574746
0.570449
0.565980
0.561440
0.556926
0.552526
0.548319
0.544370
0.540731
0.537438
0.534512
0.531959
0.529775
0.527940
0.526426
0.525199
0.524219
0.523443
0.522827
0.522330
0.521915
0.521549
0.521207
0.520870
0.520527
0.520173
0.519810
0.519958
0.520670
0.521624
0.522841
0.524339
0.526133
0.528234
0.530655
0.533401
0.536480
0.539891
0.543630
0.547690
0.552059
0.556716
0.561630
0.566760
0.572041
0.577367
0.582548
0.587230
0.590811
0.592478
0.591729
0.589461
0.588399
0.591308
0.598303
0.606590
0.613031
0.616341
0.616906
0.615558
0.612915
0.609320
0.604968
0.599998
0.594539
0.588725
0.582690
0.576570
0.570491
0.564570
0.558909
0.553592
0.548685
0.544234
0.540264
0.536786
0.533790
0.531252
0.529140
0.527407
0.526005
0.524879
0.523977
0.523246
0.522639
0.522116
0.521643
0.521195
0.520757
0.520319
0.519883
0.520195
0.521048
0.522185
0.523631
0.525409
0.527540
0.530040
0.532928
0.536217
0.539918
0.544023
0.548519
0.553395
0.558650
0.564267
0.570205
0.576407
0.582784
0.589176
0.595265
0.600403
0.603366
0.602377
0.596365
0.587559
0.582148
0.585966
0.598976
0.615119
0.627800
0.634508
0.636305
0.635043
0.631951
0.627635
0.622390
0.616402
0.609831
0.602838
0.595586
0.588236
0.580939
0.573835
0.567044
0.560664
0.554774
0.549426
0.544651
0.540459
0.536839
0.533764
0.531195
0.529079
0.527358
0.525970
0.524853
0.523946
0.523196
0.522554
0.521980
0.521446
0.520931
0.520425
0.519925
0.520272
0.521217
0.522475
0.524075
0.526043
0.528401
0.531174
0.534395
0.538109
0.542334
0.546998
0.551985
0.557287
0.562997
0.569163
0.575735
0.582617
0.589683
0.596706
0.603192
0.608035
0.608977
0.602673
0.587414
0.568069
0.556195
0.561574
0.583465
0.611104
0.632930
0.644628
0.648339
0.647489
0.644207
0.639453
0.633638
0.626993
0.619699
0.611938
0.603890
0.595734
0.587640
0.579761
0.572230
0.565156
0.558625
0.552695
0.547400
0.542750
0.538732
0.535318
0.532462
0.530108
0.528192
0.526645
0.525399
0.524388
0.523551
0.522835
0.522197
0.521606
0.521037
0.520480
0.519932
0.520176
0.521160
0.522472
0.524142
0.526197
0.528663
0.531589
0.535093
0.539388
0.544537
0.550062
0.555248
0.560084
0.565263
0.571239
0.577917
0.585031
0.592351
0.599561
0.605956
0.609838
0.607577
0.593895
0.566859
0.535280
0.516799
0.524705
0.556848
0.597335
0.629336
0.646568
0.652437
0.652188
0.648955
0.644063
0.638036
0.631133
0.623550
0.615476
0.607102
0.598614
0.590190
0.581990
0.574154
0.566796
0.560004
0.553841
0.548341
0.543515
0.539349
0.535814
0.532860
0.530430
0.528454
0.526862
0.525581
0.524542
0.523681
0.522943
0.522283
0.521666
0.521069
0.520482
0.519902
0.519908
0.520873
0.522168
0.523821
0.525858
0.528320
0.531357
0.535484
0.541675
0.550203
0.558736
0.563817
0.565431
0.567015
0.570880
0.576728
0.583541
0.590685
0.597693
0.603664
0.606332
0.600705
0.579778
0.542028
0.500388
0.477429
0.488429
0.529344
0.580036
0.619799
0.641138
0.648617
0.648921
0.645922
0.641192
0.635317
0.628572
0.621151
0.613241
0.605030
0.596703
0.588436
0.580388
0.572698
0.565480
0.558824
0.552790
0.547413
0.542703
0.538648
0.535217
0.532360
0.530019
0.528125
0.526605
0.525387
0.524400
0.523580
0.522871
0.522230
0.521622
0.521024
0.520428
0.519832
0.519476
0.520367
0.521576
0.523127
0.525046
0.527427
0.530774
0.536962
0.549593
0.569656
0.588464
0.593145
0.583679
0.572913
0.569531
0.572538
0.578307
0.584863
0.591376
0.596842
0.598712
0.591142
0.566069
0.522515
0.476136
0.451961
0.465434
0.510654
0.565202
0.607201
0.629455
0.637318
0.637932
0.635300
0.631011
0.625646
0.619464
0.612647
0.605367
0.597798
0.590115
0.582482
0.575049
0.567948
0.561287
0.555152
0.549600
0.544666
0.540358
0.536666
0.533558
0.530988
0.528898
0.527222
0.525888
0.524826
0.523968
0.523252
0.522624
0.522043
0.521476
0.520905
0.520321
0.519728
0.518901
0.519668
0.520727
0.522097
0.523812
0.526102
0.530382
0.541995
0.571240
0.620939
0.666220
0.670241
0.632958
0.591188
0.569840
0.566120
0.569738
0.575278
0.581055
0.586099
0.588119
0.581324
0.557311
0.514946
0.470139
0.447574
0.461384
0.504507
0.554895
0.592639
0.612272
0.619218
0.619877
0.617726
0.614136
0.609606
0.604359
0.598550
0.592327
0.585842
0.579246
0.572685
0.566292
0.560187
0.554466
0.549206
0.544461
0.540262
0.536618
0.533518
0.530934
0.528823
0.527131
0.525795
0.524751
0.523930
0.523272
0.522716
0.522216
0.521733
0.521238
0.520718
0.520167
0.519592
0.518213
0.518814
0.519668
0.520790
0.522231
0.524479
0.530633
0.552443
0.612565
0.717210
0.811649
0.814808
0.726573
0.628007
0.573958
0.558295
0.558392
0.562420
0.567065
0.571509
0.574419
0.571138
0.553485
0.518905
0.480799
0.461170
0.472158
0.506868
0.546374
0.575156
0.589917
0.595199
0.595795
0.594250
0.591581
0.588163
0.584167
0.579709
0.574907
0.569879
0.564748
0.559632
0.554643
0.549878
0.545422
0.541339
0.537676
0.534461
0.531702
0.529389
0.527498
0.525992
0.524821
0.523930
0.523261
0.522754
0.522353
0.522006
0.521672
0.521318
0.520922
0.520473
0.519974
0.519433
0.517451
0.517852
0.518460
0.519282
0.520394
0.522609
0.531166
0.565939
0.665256
0.839607
0.996425
0.998611
0.845843
0.675327
0.579899
0.549173
0.544823
0.546753
0.549398
0.552136
0.555331
0.556619
0.548619
0.526148
0.497651
0.480905
0.486327
0.508855
0.534635
0.553228
0.562837
0.566460
0.567076
0.566274
0.564704
0.562611
0.560105
0.557260
0.554155
0.550869
0.547491
0.544106
0.540796
0.537638
0.534695
0.532020
0.529651
0.527609
0.525903
0.524525
0.523455
0.522662
0.522105
0.521737
0.521507
0.521366
0.521266
0.521164
0.521025
0.520824
0.520546
0.520187
0.519752
0.519258
0.516658
0.516838
0.517173
0.517661
0.518391
0.520415
0.530539
0.574612
0.702476
0.927740
1.130001
1.131165
0.930519
0.706608
0.580230
0.537865
0.529540
0.528776
0.527927
0.526549
0.527371
0.531531
0.533304
0.524400
0.506644
0.492695
0.492020
0.502703
0.516318
0.526536
0.532135
0.534584
0.535414
0.535474
0.535123
0.534489
0.533624
0.532556
0.531320
0.529957
0.528512
0.527038
0.525584
0.524200
0.522928
0.521807
0.520863
0.520114
0.519567
0.519216
0.519046
0.519033
0.519146
0.519346
0.519595
0.519851
0.520076
0.520239
0.520313
0.520280
0.520133
0.519875
0.519516
0.519078
0.515881
0.515832
0.515883
0.516021
0.516326
0.517836
0.527348
0.570700
0.697726
0.922029
1.123199
1.123100
0.921071
0.695659
0.567673
0.523580
0.513197
0.509327
0.503295
0.494768
0.489303
0.492566
0.501508
0.505265
0.498593
0.488500
0.483910
0.486306
0.491719
0.496514
0.499622
0.501476
0.502710
0.503706
0.504621
0.505494
0.506320
0.507084
0.507779
0.508400
0.508954
0.509455
0.509920
0.510370
0.510827
0.511311
0.511841
0.512426
0.513073
0.513779
0.514534
0.515322
0.516120
0.516902
0.517637
0.518298
0.518856
0.519288
0.519579
0.519719
0.519708
0.519556
0.519280
0.518904
0.515165
0.514895
0.514668
0.514462
0.514322
0.515027
0.521784
0.554438
0.651288
0.822800
0.976379
0.974891
0.818069
0.643139
0.542979
0.507185
0.496850
0.489893
0.477833
0.460291
0.445598
0.444291
0.456729
0.470652
0.474627
0.469934
0.464604
0.462825
0.463818
0.465679
0.467492
0.469190
0.470947
0.472886
0.475037
0.477372
0.479839
0.482382
0.484949
0.487498
0.489995
0.492415
0.494745
0.496980
0.499118
0.501164
0.503124
0.505006
0.506811
0.508540
0.510190
0.511751
0.513210
0.514550
0.515753
0.516801
0.517677
0.518369
0.518868
0.519175
0.519297
0.519250
0.519056
0.518745
0.514556
0.514083
0.513602
0.513079
0.512517
0.512350
0.515626
0.534043
0.590213
0.690305
0.779552
0.776861
0.682146
0.576511
0.514887
0.491140
0.481873
0.472466
0.455318
0.429716
0.405828
0.398211
0.410699
0.431032
0.443533
0.444498
0.440475
0.437282
0.436270
0.436721
0.437960
0.439751
0.442060
0.444877
0.448156
0.451819
0.455778
0.459937
0.464209
0.468512
0.472776
0.476946
0.480976
0.484837
0.488507
0.491976
0.495240
0.498300
0.501159
0.503817
0.506277
0.508536
0.510591
0.512434
0.514057
0.515452
0.516613
0.517536
0.518223
0.518681
0.518925
0.518975
0.518860
0.518612
0.514093
0.513448
0.512751
0.511959
0.511040
0.510155
0.510651
0.517803
0.541848
0.585557
0.624013
0.620356
0.574556
0.523485
0.492164
0.477851
0.469523
0.458835
0.439272
0.409489
0.379725
0.366446
0.376234
0.398199
0.415075
0.419886
0.417424
0.414003
0.412173
0.411991
0.413021
0.414998
0.417808
0.421372
0.425598
0.430377
0.435587
0.441104
0.446807
0.452586
0.458339
0.463981
0.469444
0.474674
0.479636
0.484303
0.488665
0.492717
0.496459
0.499896
0.503032
0.505873
0.508422
0.510681
0.512650
0.514331
0.515726
0.516840
0.517682
0.518266
0.518613
0.518748
0.518703
0.518514
0.513805
0.513032
0.512170
0.511171
0.509985
0.508623
0.507508
0.508435
0.514935
0.527933
0.538697
0.534331
0.514824
0.493082
0.477920
0.468463
0.460586
0.449885
0.431109
0.402284
0.371837
0.355334
0.360679
0.379432
0.395581
0.401156
0.399343
0.395931
0.393783
0.393332
0.394309
0.396468
0.399666
0.403790
0.408725
0.414337
0.420483
0.427017
0.433796
0.440682
0.447554
0.454305
0.460846
0.467109
0.473043
0.478613
0.483799
0.488594
0.492998
0.497015
0.500654
0.503925
0.506837
0.509399
0.511620
0.513507
0.515071
0.516323
0.517278
0.517956
0.518381
0.518583
0.518595
0.518456
0.513716
0.512863
0.511897
0.510767
0.509414
0.507791
0.505957
0.504341
0.503840
0.504657
0.504411
0.499619
0.490274
0.479867
0.470846
0.463090
0.455385
0.445532
0.429774
0.405945
0.379585
0.362922
0.363444
0.375633
0.386968
0.390535
0.388311
0.384842
0.382595
0.382054
0.383030
0.385307
0.388737
0.393196
0.398554
0.404666
0.411378
0.418528
0.425959
0.433521
0.441076
0.448505
0.455707
0.462602
0.469131
0.475252
0.480941
0.486188
0.490989
0.495353
0.499290
0.502812
0.505934
0.508668
0.511029
0.513031
0.514688
0.516017
0.517036
0.517769
0.518243
0.518489
0.518543
0.518444
0.513836
0.512958
0.511955
0.510776
0.509360
0.507645
0.505585
0.503212
0.500657
0.497914
0.494455
0.489538
0.483154
0.476051
0.468808
0.461529
0.454005
0.445278
0.433108
0.415703
0.395874
0.381455
0.378132
0.383010
0.387983
0.388313
0.385188
0.381663
0.379465
0.378931
0.379906
0.382204
0.385687
0.390229
0.395699
0.401949
0.408820
0.416148
0.423771
0.431535
0.439298
0.446934
0.454340
0.461430
0.468142
0.474431
0.480271
0.485648
0.490561
0.495017
0.499028
0.502606
0.505770
0.508535
0.510917
0.512933
0.514601
0.515940
0.516970
0.517716
0.518207
0.518474
0.518553
0.518480
0.514165
0.513317
0.512346
0.511202
0.509828
0.508160
0.506134
0.503697
0.500817
0.497446
0.493462
0.488723
0.483224
0.477102
0.470513
0.463598
0.456447
0.448782
0.439560
0.427659
0.414111
0.402911
0.397483
0.396705
0.396356
0.393911
0.390096
0.386685
0.384667
0.384201
0.385149
0.387357
0.390703
0.395071
0.400333
0.406348
0.412963
0.420021
0.427365
0.434847
0.442330
0.449692
0.456833
0.463671
0.470143
0.476207
0.481835
0.487016
0.491747
0.496034
0.499889
0.503326
0.506361
0.509011
0.511292
0.513221
0.514817
0.516097
0.517084
0.517802
0.518276
0.518539
0.518623
0.518564
0.514690
0.513927
0.513054
0.512027
0.510795
0.509297
0.507474
0.505264
0.502613
0.499471
0.495786
0.491519
0.486663
0.481252
0.475355
0.469091
0.462613
0.455954
0.448789
0.440597
0.431599
0.423368
0.417507
0.413761
0.410448
0.406601
0.402700
0.399654
0.397934
0.397575
0.398457
0.400462
0.403487
0.407430
0.412176
0.417598
0.423558
0.429914
0.436526
0.443260
0.449993
0.456618
0.463043
0.469196
0.475022
0.480481
0.485551
0.490219
0.494484
0.498351
0.501830
0.504933
0.507676
0.510071
0.512134
0.513879
0.515322
0.516480
0.517372
0.518019
0.518446
0.518680
0.518751
0.518692
0.515388
0.514758
0.514044
0.513208
0.512207
0.510990
0.509503
0.507694
0.505512
0.502913
0.499860
0.496328
0.492312
0.487826
0.482915
0.477666
0.472213
0.466681
0.461062
0.455201
0.449086
0.443161
0.437995
0.433608
0.429558
0.425670
0.422284
0.419829
0.418495
0.418261
0.419036
0.420732
0.423269
0.426562
0.430515
0.435021
0.439966
0.445231
0.450702
0.456268
0.461829
0.467298
0.472602
0.477681
0.482492
0.487006
0.491202
0.495072
0.498616
0.501836
0.504740
0.507339
0.509640
0.511656
0.513395
0.514869
0.516089
0.517066
0.517816
0.518356
0.518706
0.518889
0.518930
0.518860
0.516225
0.515769
0.515264
0.514682
0.513987
0.513140
0.512099
0.510821
0.509264
0.507393
0.505179
0.502602
0.499656
0.496350
0.492714
0.488805
0.484718
0.480568
0.476436
0.472322
0.468199
0.464135
0.460267
0.456651
0.453272
0.450227
0.447742
0.446019
0.445123
0.445021
0.445650
0.446949
0.448859
0.451316
0.454245
0.457568
0.461198
0.465050
0.469040
0.473090
0.477128
0.481095
0.484939
0.488621
0.492114
0.495396
0.498458
0.501294
0.503903
0.506289
0.508454
0.510404
0.512143
0.513675
0.515004
0.516135
0.517071
0.517820
0.518390
0.518792
0.519041
0.519154
0.519152
0.519058
0.517161
0.516908
0.516650
0.516367
0.516035
0.515626
0.515110
0.514456
0.513635
0.512620
0.511388
0.509927
0.508229
0.506299
0.504155
0.501830
0.499381
0.496883
0.494409
0.491996
0.489637
0.487317
0.485045
0.482850
0.480796
0.478997
0.477587
0.476655
0.476218
0.476246
0.476700
0.477536
0.478717
0.480199
0.481935
0.483877
0.485974
0.488176
0.490437
0.492714
0.494972
0.497180
0.499317
0.501365
0.503314
0.505157
0.506892
0.508519
0.510038
0.511450
0.512755
0.513952
0.515038
0.516011
0.516867
0.517601
0.518212
0.518697
0.519059
0.519301
0.519431
0.519461
0.519404
0.519278
0.518149
0.518117
0.518127
0.518170
0.518234
0.518302
0.518359
0.518385
0.518363
0.518276
0.518111
0.517858
0.517512
0.517072
0.516546
0.515949
0.515304
0.514647
0.514015
0.513431
0.512889
0.512364
0.511830
0.511286
0.510764
0.510324
0.510021
0.509884
0.509905
0.510059
0.510317
0.510652
0.511044
0.511471
0.511917
0.512365
0.512801
0.513215
0.513602
0.513959
0.514287
0.514590
0.514876
0.515151
0.515426
0.515709
0.516006
0.516322
0.516660
0.517018
0.517392
0.517775
0.518158
0.518528
0.518874
0.519183
0.519443
0.519646
0.519783
0.519852
0.519853
0.519791
0.519672
0.519510
0.519139
0.519332
0.519616
0.519992
0.520459
0.521014
0.521654
0.522373
0.523164
0.524022
0.524942
0.525917
0.526944
0.528020
0.529140
0.530303
0.531509
0.532758
0.534051
0.535378
0.536717
0.538027
0.539266
0.540399
0.541411
0.542301
0.543065
0.543691
0.544153
0.544422
0.544478
0.544303
0.543893
0.543249
0.542383
0.541312
0.540061
0.538659
0.537142
0.535547
0.533913
0.532280
0.530683
0.529157
0.527730
0.526425
0.525259
0.524243
0.523380
0.522667
0.522095
0.521652
0.521321
0.521080
0.520909
0.520787
0.520693
0.520608
0.520518
0.520412
0.520282
0.520125
0.519943
0.519741
0.520081
0.520490
0.521036
0.521730
0.522583
0.523604
0.524802
0.526183
0.527752
0.529514
0.531469
0.533619
0.535958
0.538481
0.541175
0.544025
0.547008
0.550098
0.553261
0.556456
0.559632
0.562724
0.565665
0.568387
0.570834
0.572953
0.574700
0.576028
0.576895
0.577269
0.577127
0.576463
0.575285
0.573617
0.571497
0.568974
0.566110
0.562974
0.559638