# vtk DataFile Version 3.0
structured grid
ASCII
DATASET STRUCTURED_GRID
DIMENSIONS 64 40 1
POINTS 2560 float
0.000000 -3.000000 0.000000
0.190476 -3.000000 0.000000
0.380952 -3.000000 0.000000
0.571429 -3.000000 0.000000
0.761905 -3.000000 0.000000
0.952381 -3.000000 0.000000
1.142857 -3.000000 0.000000
1.333333 -3.000000 0.000000
1.523810 -3.000000 0.000000
1.714286 -3.000000 0.000000
1.904762 -3.000000 0.000000
2.095238 -3.000000 0.000000
2.285714 -3.000000 0.000000
2.476190 -3.000000 0.000000
2.666667 -3.000000 0.000000
2.857143 -3.000000 0.000000
3.047619 -3.000000 0.000000
3.238095 -3.000000 0.000000
3.428571 -3.000000 0.000000
3.619048 -3.000000 0.000000
3.809524 -3.000000 0.000000
4.000000 -3.000000 0.000000
4.190476 -3.000000 0.000000
4.380952 -3.000000 0.000000
4.571429 -3.000000 0.000000
4.761905 -3.000000 0.000000
4.952381 -3.000000 0.000000
5.142857 -3.000000 0.000000
5.333333 -3.000000 0.000000
5.523810 -3.000000 0.000000
5.714286 -3.000000 0.000000
5.904762 -3.000000 0.000000
6.095238 -3.000000 0.000000
6.285714 -3.000000 0.000000
6.476190 -3.000000 0.000000
6.666667 -3.000000 0.000000
6.857143 -3.000000 0.000000
7.047619 -3.000000 0.000000
7.238095 -3.000000 0.000000
7.428571 -3.000000 0.000000
7.619048 -3.000000 0.000000
7.809524 -3.000000 0.000000
8.000000 -3.000000 0.000000
8.190476 -3.000000 0.000000
8.380952 -3.000000 0.000000
8.571429 -3.000000 0.000000
8.761905 -3.000000 0.000000
8.952381 -3.000000 0.000000
9.142857 -3.000000 0.000000
9.333333 -3.000000 0.000000
9.523810 -3.000000 0.000000
9.714286 -3.000000 0.000000
9.904762 -3.000000 0.000000
10.095238 -3.000000 0.000000
10.285714 -3.000000 0.000000
10.476190 -3.000000 0.000000
10.666667 -3.000000 0.000000
10.857143 -3.000000 0.000000
11.047619 -3.000000 0.000000
11.238095 -3.000000 0.000000
11.428571 -3.000000 0.000000
11.619048 -3.000000 0.000000
11.809524 -3.000000 0.000000
12.000000 -3.000000 0.000000
0.000000 -2.846154 0.000000
0.190476 -2.846154 0.000000
0.380952 -2.846154 0.000000
0.571429 -2.846154 0.000000
0.761905 -2.846154 0.000000
0.952381 -2.846154 0.000000
1.142857 -2.846154 0.000000
1.333333 -2.846154 0.000000
1.523810 -2.846154 0.000000
1.714286 -2.846154 0.000000
1.904762 -2.846154 0.000000
2.095238 -2.846154 0.000000
2.285714 -2.846154 0.000000
2.476190 -2.846154 0.000000
2.666667 -2.846154 0.000000
2.857143 -2.846154 0.000000
3.047619 -2.846154 0.000000
3.238095 -2.846154 0.000000
3.428571 -2.846154 0.000000
3.619048 -2.846154 0.000000
3.809524 -2.846154 0.000000
4.000000 -2.846154 0.000000
4.190476 -2.846154 0.000000
4.380952 -2.846154 0.000000
4.571429 -2.846154 0.000000
4.761905 -2.846154 0.000000
4.952381 -2.846154 0.000000
5.142857 -2.846154 0.000000
5.333333 -2.846154 0.000000
5.523810 -2.846154 0.000000
5.714286 -2.846154 0.000000
5.904762 -2.846154 0.000000
6.095238 -2.846154 0.000000
6.285714 -2.846154 0.000000
6.476190 -2.846154 0.000000
6.666667 -2.846154 0.000000
6.857143 -2.846154 0.000000
7.047619 -2.846154 0.000000
7.238095 -2.846154 0.000000
7.428571 -2.846154 0.000000
7.619048 -2.846154 0.000000
7.809524 -2.846154 0.000000
8.000000 -2.846154 0.000000
8.190476 -2.846154 0.000000
8.380952 -2.846154 0.000000
8.571429 -2.846154 0.000000
8.761905 -2.846154 0.000000
8.952381 -2.846154 0.000000
9.142857 -2.846154 0.000000
9.333333 -2.846154 0.000000
9.523810 -2.846154 0.000000
9.714286 -2.846154 0.000000
9.904762 -2.846154 0.000000
10.095238 -2.846154 0.000000
10.285714 -2.846154 0.000000
10.476190 -2.846154 0.000000
10.666667 -2.846154 0.000000
10.857143 -2.846154 0.000000
11.047619 -2.846154 0.000000
11.238095 -2.846154 0.000000
11.428571 -2.846154 0.000000
11.619048 -2.846154 0.000000
11.809524 -2.846154 0.000000
12.000000 -2.846154 0.000000
0.000000 -2.692308 0.000000
0.190476 -2.692308 0.000000
0.380952 -2.692308 0.000000
0.571429 -2.692308 0.000000
0.761905 -2.692308 0.000000
0.952381 -2.692308 0.000000
1.142857 -2.692308 0.000000
1.333333 -2.692308 0.000000
1.523810 -2.692308 0.000000
1.714286 -2.692308 0.000000
1.904762 -2.692308 0.000000
2.095238 -2.692308 0.000000
2.285714 -2.692308 0.000000
2.476190 -2.692308 0.000000
2.666667 -2.692308 0.000000
2.857143 -2.692308 0.000000
3.047619 -2.692308 0.000000
3.238095 -2.692308 0.000000
3.428571 -2.692308 0.000000
3.619048 -2.692308 0.000000
3.809524 -2.692308 0.000000
4.000000 -2.692308 0.000000
4.190476 -2.692308 0.000000
4.380952 -2.692308 0.000000
4.571429 -2.692308 0.000000
4.761905 -2.692308 0.000000
4.952381 -2.692308 0.000000
5.142857 -2.692308 0.000000
5.333333 -2.692308 0.000000
5.523810 -2.692308 0.000000
5.714286 -2.692308 0.000000
5.904762 -2.692308 0.000000
6.095238 -2.692308 0.000000
6.285714 -2.692308 0.000000
6.476190 -2.692308 0.000000
6.666667 -2.692308 0.000000
6.857143 -2.692308 0.000000
7.047619 -2.692308 0.000000
7.238095 -2.692308 0.000000
7.428571 -2.692308 0.000000
7.619048 -2.692308 0.000000
7.809524 -2.692308 0.000000
8.000000 -2.692308 0.000000
8.190476 -2.692308 0.000000
8.380952 -2.692308 0.000000
8.571429 -2.692308 0.000000
8.761905 -2.692308 0.000000
8.952381 -2.692308 0.000000
9.142857 -2.692308 0.000000
9.333333 -2.692308 0.000000
9.523810 -2.692308 0.000000
9.714286 -2.692308 0.000000
9.904762 -2.692308 0.000000
10.095238 -2.692308 0.000000
10.285714 -2.692308 0.000000
10.476190 -2.692308 0.000000
10.666667 -2.692308 0.000000
10.857143 -2.692308 0.000000
11.047619 -2.692308 0.000000
11.238095 -2.692308 0.000000
11.428571 -2.692308 0.000000
11.619048 -2.692308 0.000000
11.809524 -2.692308 0.000000
12.000000 -2.692308 0.000000
0.000000 -2.538462 0.000000
0.190476 -2.538462 0.000000
0.380952 -2.538462 0.000000
0.571429 -2.538462 0.000000
0.761905 -2.538462 0.000000
0.952381 -2.538462 0.000000
1.142857 -2.538462 0.000000
1.333333 -2.538462 0.000000
1.523810 -2.538462 0.000000
1.714286 -2.538462 0.000000
1.904762 -2.538462 0.000000
2.095238 -2.538462 0.000000
2.285714 -2.538462 0.000000
2.476190 -2.538462 0.000000
2.666667 -2.538462 0.000000
2.857143 -2.538462 0.000000
3.047619 -2.538462 0.000000
3.238095 -2.538462 0.000000
3.428571 -2.538462 0.000000
3.619048 -2.538462 0.000000
3.809524 -2.538462 0.000000
4.000000 -2.538462 0.000000
4.190476 -2.538462 0.000000
4.380952 -2.538462 0.000000
4.571429 -2.538462 0.000000
4.761905 -2.538462 0.000000
4.952381 -2.538462 0.000000
5.142857 -2.538462 0.000000
5.333333 -2.538462 0.000000
5.523810 -2.538462 0.000000
5.714286 -2.538462 0.000000
5.904762 -2.538462 0.000000
6.095238 -2.538462 0.000000
6.285714 -2.538462 0.000000
6.476190 -2.538462 0.000000
6.666667 -2.538462 0.000000
6.857143 -2.538462 0.000000
7.047619 -2.538462 0.000000
7.238095 -2.538462 0.000000
7.428571 -2.538462 0.000000
7.619048 -2.538462 0.000000
7.809524 -2.538462 0.000000
8.000000 -2.538462 0.000000
8.190476 -2.538462 0.000000
8.380952 -2.538462 0.000000
8.571429 -2.538462 0.000000
8.761905 -2.538462 0.000000
8.952381 -2.538462 0.000000
9.142857 -2.538462 0.000000
9.333333 -2.538462 0.000000
9.523810 -2.538462 0.000000
9.714286 -2.538462 0.000000
9.904762 -2.538462 0.000000
10.095238 -2.538462 0.000000
10.285714 -2.538462 0.000000
10.476190 -2.538462 0.000000
10.666667 -2.538462 0.000000
10.857143 -2.538462 0.000000
11.047619 -2.538462 0.000000
11.238095 -2.538462 0.000000
11.428571 -2.538462 0.000000
11.619048 -2.538462 0.000000
11.809524 -2.538462 0.000000
12.000000 -2.538462 0.000000
0.000000 -2.384615 0.000000
0.190476 -2.384615 0.000000
0.380952 -2.384615 0.000000
0.571429 -2.384615 0.000000
0.761905 -2.384615 0.000000
0.952381 -2.384615 0.000000
1.142857 -2.384615 0.000000
1.333333 -2.384615 0.000000
1.523810 -2.384615 0.000000
1.714286 -2.384615 0.000000
1.904762 -2.384615 0.000000
2.095238 -2.384615 0.000000
2.285714 -2.384615 0.000000
2.476190 -2.384615 0.000000
2.666667 -2.384615 0.000000
2.857143 -2.384615 0.000000
3.047619 -2.384615 0.000000
3.238095 -2.384615 0.000000
3.428571 -2.384615 0.000000
3.619048 -2.384615 0.000000
3.809524 -2.384615 0.000000
4.000000 -2.384615 0.000000
4.190476 -2.384615 0.000000
4.380952 -2.384615 0.000000
4.571429 -2.384615 0.000000
4.761905 -2.384615 0.000000
4.952381 -2.384615 0.000000
5.142857 -2.384615 0.000000
5.333333 -2.384615 0.000000
5.523810 -2.384615 0.000000
5.714286 -2.384615 0.000000
5.904762 -2.384615 0.000000
6.095238 -2.384615 0.000000
6.285714 -2.384615 0.000000
6.476190 -2.384615 0.000000
6.666667 -2.384615 0.000000
6.857143 -2.384615 0.000000
7.047619 -2.384615 0.000000
7.238095 -2.384615 0.000000
7.428571 -2.384615 0.000000
7.619048 -2.384615 0.000000
7.809524 -2.384615 0.000000
8.000000 -2.384615 0.000000
8.190476 -2.384615 0.000000
8.380952 -2.384615 0.000000
8.571429 -2.384615 0.000000
8.761905 -2.384615 0.000000
8.952381 -2.384615 0.000000
9.142857 -2.384615 0.000000
9.333333 -2.384615 0.000000
9.523810 -2.384615 0.000000
9.714286 -2.384615 0.000000
9.904762 -2.384615 0.000000
10.095238 -2.384615 0.000000
10.285714 -2.384615 0.000000
10.476190 -2.384615 0.000000
10.666667 -2.384615 0.000000
10.857143 -2.384615 0.000000
11.047619 -2.384615 0.000000
11.238095 -2.384615 0.000000
11.428571 -2.384615 0.000000
11.619048 -2.384615 0.000000
11.809524 -2.384615 0.000000
12.000000 -2.384615 0.000000
0.000000 -2.230769 0.000000
0.190476 -2.230769 0.000000
0.380952 -2.230769 0.000000
0.571429 -2.230769 0.000000
0.761905 -2.230769 0.000000
0.952381 -2.230769 0.000000
1.142857 -2.230769 0.000000
1.333333 -2.230769 0.000000
1.523810 -2.230769 0.000000
1.714286 -2.230769 0.000000
1.904762 -2.230769 0.000000
2.095238 -2.230769 0.000000
2.285714 -2.230769 0.000000
2.476190 -2.230769 0.000000
2.666667 -2.230769 0.000000
2.857143 -2.230769 0.000000
3.047619 -2.230769 0.000000
3.238095 -2.230769 0.000000
3.428571 -2.230769 0.000000
3.619048 -2.230769 0.000000
3.809524 -2.230769 0.000000
4.000000 -2.230769 0.000000
4.190476 -2.230769 0.000000
4.380952 -2.230769 0.000000
4.571429 -2.230769 0.000000
4.761905 -2.230769 0.000000
4.952381 -2.230769 0.000000
5.142857 -2.230769 0.000000
5.333333 -2.230769 0.000000
5.523810 -2.230769 0.000000
5.714286 -2.230769 0.000000
[...]
POINT_DATA 2560
SCALARS pressure float 1
LOOKUP_TABLE default
0.521199
0.521519
0.521916
0.522410
0.523022
0.523774
0.524689
0.525788
0.527090
0.528612
0.530365
0.532356
0.534584
0.537042
0.539715
0.542577
0.545595
0.548729
0.551927
0.555134
0.558288
0.561325
0.564178
0.566783
0.569078
0.571009
0.572530
0.573602
0.574203
0.574317
0.573947
0.573105
0.571815
0.570114
0.568045
0.565660
0.563016
0.560172
0.557189
0.554127
0.551040
0.547981
0.544995
0.542122
0.539394
0.536835
0.534465
0.532295
0.530331
0.528575
0.527022
0.525666
0.524497
0.523503
0.522672
0.521989
0.521440
0.521008
0.520679
0.520437
0.520269
0.520159
0.520094
0.520062
0.520435
0.520524
0.520633
0.520775
0.520962
0.521207
0.521521
0.521917
0.522406
0.522995
0.523691
0.524496
0.525408
0.526423
0.527532
0.528720
0.529972
0.531267
0.532582
0.533890
0.535164
0.536378
0.537505
0.538518
0.539396
0.540118
0.540670
0.541039
0.541221
0.541215
0.541023
0.540655
0.540122
0.539440
0.538628
0.537705
0.536692
0.535610
0.534480
0.533322
0.532154
0.530992
0.529852
0.528745
0.527682
0.526672
0.525722
0.524837
0.524022
0.523279
0.522610
0.522017
0.521499
0.521057
0.520687
0.520388
0.520154
0.519982
0.519866
0.519798
0.519771
0.519775
0.519804
0.519847
0.519640
0.519487
0.519296
0.519071
0.518815
0.518530
0.518219
0.517884
0.517527
0.517147
0.516744
0.516317
0.515862
0.515378
0.514861
0.514312
0.513729
0.513114
0.512470
0.511804
0.511125
0.510445
0.509776
0.509135
0.508538
0.508004
0.507548
0.507187
0.506934
0.506801
0.506795
0.506919
0.507173
0.507551
0.508045
0.508641
0.509324
0.510073
0.510870
0.511692
0.512519
0.513330
0.514108
0.514838
0.515507
0.516107
0.516632
0.517083
0.517460
0.517770
0.518019
0.518218
0.518376
0.518504
0.518613
0.518711
0.518806
0.518905
0.519009
0.519122
0.519243
0.519368
0.519495
0.519617
0.518860
0.518469
0.517983
0.517397
0.516705
0.515900
0.514975
0.513924
0.512739
0.511411
0.509935
0.508303
0.506514
0.504566
0.502463
0.500216
0.497841
0.495360
0.492803
0.490209
0.487620
0.485087
0.482663
0.480404
0.478365
0.476601
0.475159
0.474082
0.473403
0.473145
0.473319
0.473923
0.474945
0.476360
0.478131
0.480213
0.482554
0.485096
0.487777
0.490537
0.493316
0.496058
0.498713
0.501239
0.503602
0.505776
0.507744
0.509499
0.511042
0.512379
0.513523
0.514494
0.515310
0.515994
0.516568
0.517053
0.517469
0.517831
0.518153
0.518444
0.518711
0.518956
0.519181
0.519384
0.518143
0.517531
0.516771
0.515850
0.514754
0.513468
0.511978
0.510268
0.508322
0.506126
0.503665
0.500932
0.497920
0.494633
0.491079
0.487279
0.483263
0.479073
0.474765
0.470404
0.466065
0.461834
0.457800
0.454057
0.450694
0.447800
0.445452
0.443717
0.442645
0.442270
0.442607
0.443650
0.445374
0.447736
0.450678
0.454124
0.457988
0.462175
0.466588
0.471128
0.475699
0.480214
0.484593
0.488768
0.492685
0.496303
0.499593
0.502543
0.505152
0.507427
0.509390
0.511063
0.512479
0.513669
0.514667
0.515505
0.516214
0.516818
0.517339
0.517796
0.518199
0.518559
0.518878
0.519158
0.517529
0.516726
0.515728
0.514518
0.513074
0.511376
0.509402
0.507129
0.504535
0.501599
0.498304
0.494637
0.490591
0.486170
0.481388
0.476274
0.470870
0.465234
0.459442
0.453583
0.447760
0.442088
0.436687
0.431681
0.427193
0.423336
0.420216
0.417918
0.416508
0.416030
0.416501
0.417911
0.420226
0.423390
0.427323
0.431928
0.437090
0.442682
0.448572
0.454629
0.460727
0.466751
0.472597
0.478176
0.483414
0.488258
0.492670
0.496633
0.500143
0.503212
0.505863
0.508129
0.510048
0.511663
0.513017
0.514152
0.515107
0.515916
0.516609
0.517208
0.517732
0.518192
0.518596
0.518948
0.517056
0.516102
0.514917
0.513479
0.511762
0.509743
0.507393
0.504686
0.501595
0.498096
0.494165
0.489789
0.484959
0.479680
0.473969
0.467861
0.461405
0.454674
0.447756
0.440759
0.433808
0.427038
0.420595
0.414625
0.409276
0.404682
0.400968
0.398235
0.396563
0.395999
0.396562
0.398241
0.400994
0.404756
0.409438
0.414928
0.421089
0.427766
0.434797
0.442024
0.449297
0.456479
0.463449
0.470100
0.476348
0.482127
0.487393
0.492124
0.496317
0.499984
0.503153
0.505862
0.508158
0.510090
0.511709
0.513066
0.514207
0.515172
0.515996
0.516708
0.517329
0.517873
0.518349
0.518763
0.516751
0.515694
0.514382
0.512789
0.510891
0.508659
0.506065
0.503078
0.499671
0.495815
0.491487
0.486670
0.481355
0.475546
0.469262
0.462539
0.455435
0.448025
0.440409
0.432705
0.425050
0.417593
0.410495
0.403918
0.398022
0.392959
0.388864
0.385850
0.384002
0.383371
0.383974
0.385794
0.388789
0.392893
0.398024
0.404069
0.410880
0.418276
0.426063
0.434057
0.442089
0.450013
0.457697
0.465028
0.471912
0.478278
0.484079
0.489287
0.493901
0.497934
0.501418
0.504394
0.506915
0.509035
0.510813
0.512303
0.513556
0.514619
0.515529
0.516317
0.517006
0.517613
0.518146
0.518610
0.516631
0.515525
0.514152
0.512488
0.510507
0.508184
0.505488
0.502393
0.498867
0.494885
0.490421
0.485457
0.479985
0.474007
0.467542
0.460625
0.453314
0.445686
0.437843
0.429905
0.422014
0.414322
0.406995
0.400202
0.394109
0.388872
0.384631
0.381503
0.379573
0.378891
0.379464
0.381268
0.384256
0.388382
0.393597
0.399824
0.406920
0.414669
0.422825
0.431169
0.439521
0.447734
0.455685
0.463263
0.470374
0.476946
0.482927
0.488293
0.493040
0.497184
0.500758
0.503807
0.506387
0.508555
0.510373
0.511898
0.513185
0.514281
0.515225
0.516049
0.516776
0.517421
0.517993
0.518494
0.516703
0.515603
0.514239
0.512588
0.510629
0.508338
0.505690
0.502661
0.499222
0.495350
0.491019
0.486214
0.480923
0.475148
0.468905
0.462226
0.455165
0.447794
0.440210
0.432527
0.424881
0.417421
0.410307
0.403703
0.397770
0.392663
0.388517
0.385447
0.383531
0.382805
0.383258
0.384839
0.387493
0.391209
0.396040
0.402028
0.409075
0.416895
0.425123
0.433460
0.441716
0.449771
0.457533
0.464913
0.471827
0.478208
0.484007
0.489200
0.493783
0.497774
0.501208
0.504131
0.506598
0.508670
0.510407
0.511867
0.513106
0.514168
0.515094
0.515912
0.516644
0.517302
0.517893
0.518417
0.516961
0.515923
0.514634
0.513079
0.511242
0.509105
0.506650
0.503857
0.500705
0.497173
0.493239
0.488885
0.484102
0.478890
0.473260
0.467239
0.460871
0.454218
0.447364
0.440411
0.433480
0.426705
0.420230
0.414207
0.408783
0.404100
0.400284
0.397436
0.395620
0.394846
0.395054
0.396131
0.397973
0.400622
0.404367
0.409587
0.416350
0.424211
0.432478
0.440639
0.448486
0.455984
0.463125
0.469876
0.476183
0.481990
0.487253
0.491952
0.496084
0.499668
0.502738
0.505340
0.507530
0.509364
0.510903
0.512202
0.513312
0.514278
0.515133
0.515905
0.516610
0.517257
0.517849
0.518381
0.517389
0.516461
0.515310
0.513927
0.512304
0.510432
0.508302
0.505904
0.503227
0.500257
0.496970
0.493336
0.489346
0.485009
0.480341
0.475356
0.470083
0.464567
0.458873
0.453081
0.447291
0.441612
0.436167
0.431081
0.426481
0.422489
0.419213
0.416736
0.415094
0.414247
0.414045
0.414220
0.414504
0.414973
0.416415
0.420056
0.426477
0.434888
0.443754
0.451988
0.459335
0.465979
0.472123
0.477856
0.483180
0.488063
0.492470
0.496382
0.499801
0.502746
0.505250
0.507357
0.509118
0.510589
0.511824
0.512873
0.513784
0.514593
0.515332
0.516019
0.516668
0.517281
0.517856
0.518383
0.517961
0.517186
0.516224
0.515077
0.513746
0.512234
0.510544
0.508692
0.506704
0.504580
0.502235
0.499545
0.496500
0.493205
0.489734
0.486084
0.482240
0.478213
0.474039
0.469772
0.465481
0.461246
0.457155
0.453306
0.449796
0.446719
0.444159
0.442173
0.440759
0.439799
0.438977
0.437706
0.435301
0.431753
0.428779
0.429454
0.435664
0.446020
0.457093
0.466386
0.473502
0.479145
0.483990
0.488374
0.492397
0.496061
0.499341
0.502223
0.504710
0.506822
0.508589
0.510054
0.511262
0.512263
0.513105
0.513832
0.514482
0.515087
0.515669
0.516241
0.516808
0.517368
0.517909
0.518420
0.518640
0.518050
0.517319
0.516457
0.515478
0.514399
0.513259
0.512172
0.511341
0.510822
0.510132
0.508553
0.506076
0.503399
0.500993
0.498797
0.496609
0.494330
0.491946
0.489476
0.486954
0.484421
0.481931
0.479542
0.477318
0.475322
0.473609
0.472203
0.471054
0.469934
0.468267
0.464913
0.458361
0.448259
0.437811
0.433433
0.439620
0.454229
0.470342
0.482561
0.490106
0.494727
0.498038
0.500807
0.503281
0.505500
0.507451
0.509120
0.510512
0.511645
0.512550
0.513263
0.513825
0.514278
0.514662
0.515011
0.515357
0.515721
0.516117
0.516550
0.517016
0.517506
0.518002
0.518485
0.519385
0.519001
0.518525
0.517979
0.517390
0.516805
0.516379
0.516634
0.518549
0.522398
0.525860
0.525494
0.521289
0.516668
0.513941
0.512823
0.512331
0.511944
0.511513
0.511005
0.510413
0.509741
0.508999
0.508206
0.507387
0.506571
0.505781
0.505009
0.504145
0.502834
0.500162
0.494208
0.482207
0.463155
0.442267
0.430712
0.436957
0.458212
0.482535
0.499788
0.508408
0.511919
0.513463
0.514416
0.515176
0.515812
0.516311
0.516658
0.516856
0.516924
0.516891
0.516788
0.516649
0.516507
0.516394
0.516335
0.516349
0.516450
0.516642
0.516919
0.517272
0.517682
0.518124
0.518572
0.520151
0.519981
0.519770
0.519551
0.519369
0.519340
0.519992
0.523220
0.532633
0.549228
0.564362
0.565239
0.551844
0.536956
0.529208
0.527595
0.528493
0.529994
0.531558
0.533059
0.534446
0.535679
0.536728
0.537568
0.538187
0.538578
0.538732
0.538607
0.538041
0.536554
0.532890
0.524290
0.506590
0.478023
0.445972
0.426735
0.433178
0.462097
0.495937
0.518718
0.528010
0.529877
0.529362
0.528377
0.527361
0.526370
0.525384
0.524379
0.523358
0.522339
0.521348
0.520412
0.519558
0.518811
0.518192
0.517715
0.517392
0.517224
0.517205
0.517323
0.517557
0.517881
0.518264
0.518673
0.520892
0.520929
0.520975
0.521074
0.521298
0.521916
0.524386
0.534079
0.561283
0.608806
0.651891
0.653971
0.615019
0.571583
0.548425
0.542731
0.544188
0.547398
0.550872
0.554308
0.557602
0.560672
0.563446
0.565860
0.567861
0.569411
0.570471
0.570971
0.570712
0.569126
0.564730
0.554189
0.532349
0.496945
0.457044
0.432761
0.440163
0.475430
0.515991
0.540984
0.548403
0.547476
0.544669
0.541801
0.539087
0.536536
0.534121
0.531818
0.529624
0.527560
0.525649
0.523915
0.522375
0.521047
0.519942
0.519065
0.518417
0.517990
0.517768
0.517730
0.517848
0.518087
0.518411
0.518779
0.521561
0.521787
0.522067
0.522457
0.523063
0.524432
0.529723
0.550711
0.609981
0.713603
0.807054
0.810228
0.723074
0.625675
0.572590
0.557747
0.558526
0.563110
0.568292
0.573472
0.578486
0.583213
0.587542
0.591374
0.594620
0.597212
0.599087
0.600154
0.600202
0.598650
0.593996
0.582875
0.560099
0.523515
0.482814
0.459172
0.469080
0.506967
0.546636
0.566199
0.567526
0.562846
0.558084
0.553761
0.549622
0.545691
0.541997
0.538526
0.535278
0.532274
0.529535
0.527082
0.524926
0.523077
0.521535
0.520299
0.519359
0.518698
0.518293
0.518113
0.518124
0.518286
0.518553
0.518883
0.522119
0.522503
0.522979
0.523613
0.524552
0.526689
0.535335
0.570378
0.669958
0.844041
0.999918
1.003993
0.856220
0.690135
0.598511
0.571394
0.570598
0.576180
0.582768
0.589396
0.595839
0.601943
0.607565
0.612573
0.616853
0.620308
0.622857
0.624404
0.624747
0.623370
0.618985
0.608803
0.588684
0.557359
0.523991
0.507489
0.520973
0.555135
0.582676
0.587925
0.580646
0.573380
0.568246
0.563408
0.558309
0.553283
0.548537
0.544100
0.539978
0.536195
0.532771
0.529722
0.527057
0.524776
0.522874
0.521340
0.520158
0.519303
0.518744
0.518446
0.518367
0.518462
0.518681
0.518976
0.522531
0.523033
0.523656
0.524472
0.525659
0.528362
0.539478
0.584855
0.714040
0.939513
1.138775
1.143384
0.953646
0.737504
0.617585
0.581445
0.579490
0.585807
0.593427
0.601121
0.608615
0.615732
0.622306
0.628181
0.633220
0.637311
0.640359
0.642268
0.642872
0.641774
0.638050
0.629858
0.614787
0.592994
0.572265
0.566310
0.581023
0.602015
0.606892
0.594917
0.582618
0.577142
0.574309
0.570154
0.564637
0.558861
0.553351
0.548205
0.543442
0.539086
0.535160
0.531676
0.528637
0.526040
0.523874
0.522123
0.520763
0.519765
0.519094
0.518707
0.518560
0.518603
0.518785
0.519052
0.522773
0.523346
0.524057
0.524980
0.526298
0.529159
0.540461
0.586058
0.715493
0.941230
1.140672
1.145616
0.956476
0.740850
0.621451
0.585857
0.584478
0.591393
0.599628
0.607940
0.616045
0.623751
0.630878
0.637257
0.642740
0.647202
0.650545
0.652679
0.653482
0.652696
0.649788
0.643863
0.634180
0.622137
0.613454
0.614775
0.622885
0.621631
0.603137
0.582155
0.573496
0.574926
0.576521
0.573809
0.568280
0.562102
0.556151
0.550595
0.545461
0.540774
0.536559
0.532824
0.529572
0.526794
0.524477
0.522600
0.521138
0.520057
0.519319
0.518879
0.518691
0.518701
0.518857
0.519106
0.522830
0.523422
0.524157
0.525107
0.526431
0.529030
0.538226
0.573914
0.674237
0.849140
1.005868
1.011020
0.864631
0.699989
0.609879
0.584366
0.585262
0.592605
0.600998
0.609444
0.617679
0.625514
0.632763
0.639256
0.644840
0.649390
0.652808
0.655015
0.655931
0.655424
0.653274
0.649271
0.643698
0.638260
0.635841
0.636036
0.629682
0.607227
0.577173
0.559243
0.560421
0.570259
0.575993
0.574475
0.569079
0.562821
0.556773
0.551127
0.545913
0.541158
0.536883
0.533099
0.529804
0.526991
0.524644
0.522743
0.521259
0.520160
0.519406
0.518952
0.518751
0.518750
0.518895
0.519134
0.522699
0.523257
0.523950
0.524847
0.526068
0.528177
0.534349
0.556370
0.616838
0.721822
0.816804
0.821749
0.736633
0.641468
0.590785
0.578504
0.581987
0.589387
0.597455
0.605541
0.613422
0.620916
0.627849
0.634057
0.639395
0.643744
0.647012
0.649135
0.650065
0.649759
0.648203
0.645545
0.642392
0.639844
0.637867
0.631594
0.612187
0.579757
0.550689
0.541536
0.551707
0.566470
0.573608
0.572265
0.567001
0.560974
0.555177
0.549768
0.544771
0.540213
0.536114
0.532483
0.529321
0.526621
0.524368
0.522544
0.521121
0.520070
0.519351
0.518923
0.518738
0.518746
0.518897
0.519136
0.522387
0.522862
0.523451
0.524217
0.525249
0.526840
0.530468
0.541522
0.570310
0.619649
0.664802
0.669227
0.632908
0.592372
0.572357
0.570027
0.575038
0.581948
0.589214
0.596467
0.603527
0.610234
0.616431
0.621972
0.626731
0.630600
0.633502
0.635385
0.636225
0.636033
0.634897
0.633094
0.631165
0.629424
0.626054
0.615196
0.591351
0.560194
0.538204
0.536508
0.549930
0.563850
0.569210
0.567156
0.562127
0.556662
0.551456
0.546599
0.542105
0.537998
0.534298
0.531016
0.528154
0.525707
0.523667
0.522016
0.520734
0.519793
0.519159
0.518794
0.518654
0.518693
0.518862
0.519112
0.521915
0.522260
0.522689
0.523256
0.524029
0.525147
0.527165
0.532000
0.543285
0.562034
0.579623
0.583272
0.572972
0.561489
0.557440
0.559791
0.564877
0.570739
0.576770
0.582768
0.588593
0.594112
0.599197
0.603730
0.607607
0.610745
0.613082
0.614582
0.615237
0.615082
0.614239
0.612992
0.611734
0.610363
0.606756
0.596204
0.576011
0.552598
0.538560
0.540079
0.550869
0.559844
0.561948
0.559146
0.554687
0.550132
0.545832
0.541809
0.538074
0.534646
0.531546
0.528787
0.526373
0.524307
0.522584
0.521196
0.520125
0.519351
0.518846
0.518578
0.518508
0.518595
0.518796
0.519066
0.521310
0.521490
0.521713
0.522025
0.522478
0.523145
0.524211
0.526222
0.530183
0.536389
0.542537
0.545200
0.544371
0.543466
0.544773
0.547980
0.552059
0.556430
0.560872
0.565268
0.569518
0.573522
0.577187
0.580429
0.583175
0.585370
0.586975
0.587970
0.588359
0.588186
0.587566
0.586737
0.585988
0.585169
0.582729
0.575686
0.562838
0.548728
0.540990
0.542373
0.548078
0.551724
0.551323
0.548517
0.545098
0.541772
0.538639
0.535687
0.532921
0.530361
0.528025
0.525931
0.524089
0.522508
0.521191
0.520135
0.519333
0.518773
0.518433
0.518290
0.518311
0.518462
0.518705
0.519001
0.520610
0.520597
0.520581
0.520598
0.520686
0.520891
0.521279
0.521991
0.523256
0.525152
0.527215
0.528739
0.529718
0.530844
0.532568
0.534798
0.537287
0.539876
0.542477
0.545024
0.547453
0.549705
0.551727
0.553472
0.554906
0.556002
0.556750
0.557148
0.557212
0.556984
0.556561
0.556118
0.555867
0.555754
0.554935
0.551838
0.545875
0.539331
0.535814
0.536277
0.538191
0.538847
0.537782
0.535908
0.533944
0.532085
0.530312
0.528601
0.526958
0.525400
0.523949
0.522624
0.521444
0.520423
0.519573
0.518903
0.518413
0.518100
0.517952
0.517953
0.518079
0.518304
0.518597
0.518924
0.519857
0.519638
0.519366
0.519065
0.518762
0.518486
0.518269
0.518149
0.518180
0.518384
0.518692
0.518991
0.519275
0.519641
0.520147
0.520758
0.521415
0.522072
0.522694
0.523254
0.523728
0.524097
0.524352
0.524486
0.524503
0.524412
0.524229
0.523974
0.523677
0.523378
0.523148
0.523105
0.523393
0.524027
0.524636
0.524485
0.523208
0.521586
0.520907
0.521444
0.522286
0.522630
0.522483
0.522191
0.521922
0.521661
0.521354
0.520980
0.520545
0.520066
0.519566
0.519069
0.518599
0.518181
0.517835
0.517580
0.517425
0.517378
0.517436
0.517593
0.517833
0.518137
0.518482
0.518842
0.519099
0.518671
0.518141
0.517521
0.516824
0.516068
0.515265
0.514429
0.513573
0.512702
0.511806
0.510867
0.509877
0.508841
0.507755
0.506609
0.505390
0.504093
0.502717
0.501272
0.499773
0.498242
0.496712
0.495218
0.493801
0.492506
0.491377
0.490457
0.489788
0.489410
0.489376
0.489756
0.490631
0.492025
0.493784
0.495565
0.497097
0.498480
0.500017
0.501774
0.503546
0.505192
0.506756
0.508296
0.509778
0.511132
0.512306
0.513284
0.514071
0.514682
0.515143
0.515482
0.515731
0.515923
0.516088
0.516252
0.516437
0.516658
0.516925
0.517237
0.517591
0.517975
0.518372
0.518764
0.518380
0.517757
0.516983
0.516062
0.514994
0.513783
0.512430
0.510935
0.509295
0.507505
0.505557
0.503441
0.501149
0.498676
0.496019
0.493183
0.490178
0.487024
0.483753
0.480404
0.477033
0.473699
0.470474
0.467433
0.464653
0.462212
0.460181
0.458626
0.457599
0.457146
0.457305
0.458111
0.459597
0.461760
0.464512
0.467664
0.471005
0.474418
0.477884
0.481386
0.484885
0.488358
0.491784
0.495109
0.498251
0.501134
0.503716
0.505979
0.507926
0.509574
0.510949
0.512085
0.513020
0.513793
0.514443
0.515007
0.515515
0.515992
0.516456
0.516916
0.517376
0.517832
0.518277
0.518697
0.517745
0.516951
0.515965
0.514780
0.513386
0.511776
0.509939
0.507863
0.505536
0.502945
0.500074
0.496913
0.493452
0.489690
0.485631
0.481292
0.476701
0.471900
0.466946
0.461910
0.456879
0.451947
0.447220
0.442807
0.438819
0.435362
0.432530
0.430410
0.429066
0.428547
0.428883
0.430089
0.432159
0.435061
0.438714
0.442975
0.447670
0.452640
0.457773
0.462991
0.468235
0.473444
0.478543
0.483437
0.488037
0.492273
0.496102
0.499506
0.502484
0.505053
0.507242
0.509087
0.510633
0.511924
0.513009
0.513929
0.514725
0.515428
0.516066
0.516655
0.517207
0.517725
0.518208
0.518650
0.517234
0.516305
0.515151
0.513756
0.512103
0.510173
0.507947
0.505404
0.502522
0.499281
0.495662
0.491650
0.487237
0.482424
0.477222
0.471659
0.465776
0.459635
0.453313
0.446906
0.440526
0.434297
0.428352
0.422827
0.417860
0.413578
0.410099
0.407521
0.405921
0.405352
0.405839
0.407381
0.409953
0.413498
0.417922
0.423095
0.428856
0.435041
0.441506
0.448126
0.454792
0.461396
0.467827
0.473977
0.479752
0.485083
0.489925
0.494256
0.498074
0.501395
0.504249
0.506675
0.508722
0.510439
0.511879
0.513092
0.514122
0.515010
0.515788
0.516479
0.517102
0.517666
0.518175
0.518628
0.516879
0.515859
0.514593
0.513058
0.511228
0.509080
0.506584
0.503715
0.500444
0.496745
0.492595
0.487979
0.482888
0.477325
0.471308
0.464871
0.458068
0.450973
0.443678
0.436298
0.428962
0.421814
0.415007
0.408698
0.403041
0.398180
0.394247
0.391350
0.389574
0.388974
0.389573
0.391362
0.394303
0.398323
0.403319
0.409155
0.415676
0.422713
0.430105
0.437697
0.445346
0.452912
0.460267
0.467293
0.473894
0.479998
0.485557
0.490547
0.494965
0.498824
0.502155
0.505000
0.507408
0.509434
0.511131
0.512555
0.513754
0.514773
0.515648
0.516408
0.517075
0.517665
0.518184
0.518638
0.516700
0.515642
0.514327
0.512730
0.510820
0.508568
0.505941
0.502908
0.499437
0.495499
0.491070
0.486131
0.480677
0.474710
0.468254
0.461347
0.454048
0.446440
0.438625
0.430726
0.422883
0.415250
0.407991
0.401273
0.395258
0.390100
0.385936
0.382880
0.381021
0.380412
0.381078
0.383005
0.386146
0.390422
0.395723
0.401912
0.408830
0.416310
0.424179
0.432269
0.440418
0.448476
0.456304
0.463783
0.470814
0.477324
0.483263
0.488605
0.493345
0.497497
0.501092
0.504169
0.506779
0.508978
0.510820
0.512361
0.513653
0.514741
0.515664
0.516454
0.517136
0.517728
0.518242
0.518684
0.516712
0.515668
0.514373
0.512797
0.510909
0.508676
0.506064
0.503041
0.499573
0.495631
0.491189
0.486230
0.480747
0.474747
0.468252
0.461304
0.453964
0.446315
0.438461
0.430528
0.422656
0.415001
0.407727
0.401000
0.394983
0.389828
0.385673
0.382630
0.380787
0.380196
0.380879
0.382822
0.385976
0.390260
0.395563
0.401751
0.408669
0.416150
0.424024