# vtk DataFile Version 3.0
structured grid
ASCII
DATASET STRUCTURED_GRID
DIMENSIONS 64 40 1
POINTS 2560 float
0.000000 -3.000000 0.000000
0.190476 -3.000000 0.000000
0.380952 -3.000000 0.000000
0.571429 -3.000000 0.000000
0.761905 -3.000000 0.000000
0.952381 -3.000000 0.000000
1.142857 -3.000000 0.000000
1.333333 -3.000000 0.000000
1.523810 -3.000000 0.000000
1.714286 -3.000000 0.000000
1.904762 -3.000000 0.000000
2.095238 -3.000000 0.000000
2.285714 -3.000000 0.000000
2.476190 -3.000000 0.000000
2.666667 -3.000000 0.000000
2.857143 -3.000000 0.000000
3.047619 -3.000000 0.000000
3.238095 -3.000000 0.000000
3.428571 -3.000000 0.000000
3.619048 -3.000000 0.000000
3.809524 -3.000000 0.000000
4.000000 -3.000000 0.000000
4.190476 -3.000000 0.000000
4.380952 -3.000000 0.000000
4.571429 -3.000000 0.000000
4.761905 -3.000000 0.000000
4.952381 -3.000000 0.000000
5.142857 -3.000000 0.000000
5.333333 -3.000000 0.000000
5.523810 -3.000000 0.000000
5.714286 -3.000000 0.000000
5.904762 -3.000000 0.000000
6.095238 -3.000000 0.000000
6.285714 -3.000000 0.000000
6.476190 -3.000000 0.000000
6.666667 -3.000000 0.000000
6.857143 -3.000000 0.000000
7.047619 -3.000000 0.000000
7.238095 -3.000000 0.000000
7.428571 -3.000000 0.000000
7.619048 -3.000000 0.000000
7.809524 -3.000000 0.000000
8.000000 -3.000000 0.000000
8.190476 -3.000000 0.000000
8.380952 -3.000000 0.000000
8.571429 -3.000000 0.000000
8.761905 -3.000000 0.000000
8.952381 -3.000000 0.000000
9.142857 -3.000000 0.000000
9.333333 -3.000000 0.000000
9.523810 -3.000000 0.000000
9.714286 -3.000000 0.000000
9.904762 -3.000000 0.000000
10.095238 -3.000000 0.000000
10.285714 -3.000000 0.000000
10.476190 -3.000000 0.000000
10.666667 -3.000000 0.000000
10.857143 -3.000000 0.000000
11.047619 -3.000000 0.000000
11.238095 -3.000000 0.000000
11.428571 -3.000000 0.000000
11.619048 -3.000000 0.000000
11.809524 -3.000000 0.000000
12.000000 -3.000000 0.000000
0.000000 -2.846154 0.000000
0.190476 -2.846154 0.000000
0.380952 -2.846154 0.000000
0.571429 -2.846154 0.000000
0.761905 -2.846154 0.000000
0.952381 -2.846154 0.000000
1.142857 -2.846154 0.000000
1.333333 -2.846154 0.000000
1.523810 -2.846154 0.000000
1.714286 -2.846154 0.000000
1.904762 -2.846154 0.000000
2.095238 -2.846154 0.000000
2.285714 -2.846154 0.000000
2.476190 -2.846154 0.000000
2.666667 -2.846154 0.000000
2.857143 -2.846154 0.000000
3.047619 -2.846154 0.000000
3.238095 -2.846154 0.000000
3.428571 -2.846154 0.000000
3.619048 -2.846154 0.000000
3.809524 -2.846154 0.000000
4.000000 -2.846154 0.000000
4.190476 -2.846154 0.000000
4.380952 -2.846154 0.000000
4.571429 -2.846154 0.000000
4.761905 -2.846154 0.000000
4.952381 -2.846154 0.000000
5.142857 -2.846154 0.000000
5.333333 -2.846154 0.000000
5.523810 -2.846154 0.000000
5.714286 -2.846154 0.000000
5.904762 -2.846154 0.000000
6.095238 -2.846154 0.000000
6.285714 -2.846154 0.000000
6.476190 -2.846154 0.000000
6.666667 -2.846154 0.000000
6.857143 -2.846154 0.000000
7.047619 -2.846154 0.000000
7.238095 -2.846154 0.000000
7.428571 -2.846154 0.000000
7.619048 -2.846154 0.000000
7.809524 -2.846154 0.000000
8.000000 -2.846154 0.000000
8.190476 -2.846154 0.000000
8.380952 -2.846154 0.000000
8.571429 -2.846154 0.000000
8.761905 -2.846154 0.000000
8.952381 -2.846154 0.000000
9.142857 -2.846154 0.000000
9.333333 -2.846154 0.000000
9.523810 -2.846154 0.000000
9.714286 -2.846154 0.000000
9.904762 -2.846154 0.000000
10.095238 -2.846154 0.000000
10.285714 -2.846154 0.000000
10.476190 -2.846154 0.000000
10.666667 -2.846154 0.000000
10.857143 -2.846154 0.000000
11.047619 -2.846154 0.000000
11.238095 -2.846154 0.000000
11.428571 -2.846154 0.000000
11.619048 -2.846154 0.000000
11.809524 -2.846154 0.000000
12.000000 -2.846154 0.000000
0.000000 -2.692308 0.000000
0.190476 -2.692308 0.000000
0.380952 -2.692308 0.000000
0.571429 -2.692308 0.000000
0.761905 -2.692308 0.000000
0.952381 -2.692308 0.000000
1.142857 -2.692308 0.000000
1.333333 -2.692308 0.000000
1.523810 -2.692308 0.000000
1.714286 -2.692308 0.000000
1.904762 -2.692308 0.000000
2.095238 -2.692308 0.000000
2.285714 -2.692308 0.000000
2.476190 -2.692308 0.000000
2.666667 -2.692308 0.000000
2.857143 -2.692308 0.000000
3.047619 -2.692308 0.000000
3.238095 -2.692308 0.000000
3.428571 -2.692308 0.000000
3.619048 -2.692308 0.000000
3.809524 -2.692308 0.000000
4.000000 -2.692308 0.000000
4.190476 -2.692308 0.000000
4.380952 -2.692308 0.000000
4.571429 -2.692308 0.000000
4.761905 -2.692308 0.000000
4.952381 -2.692308 0.000000
5.142857 -2.692308 0.000000
5.333333 -2.692308 0.000000
5.523810 -2.692308 0.000000
5.714286 -2.692308 0.000000
5.904762 -2.692308 0.000000
6.095238 -2.692308 0.000000
6.285714 -2.692308 0.000000
6.476190 -2.692308 0.000000
6.666667 -2.692308 0.000000
6.857143 -2.692308 0.000000
7.047619 -2.692308 0.000000
7.238095 -2.692308 0.000000
7.428571 -2.692308 0.000000
7.619048 -2.692308 0.000000
7.809524 -2.692308 0.000000
8.000000 -2.692308 0.000000
8.190476 -2.692308 0.000000
8.380952 -2.692308 0.000000
8.571429 -2.692308 0.000000
8.761905 -2.692308 0.000000
8.952381 -2.692308 0.000000
9.142857 -2.692308 0.000000
9.333333 -2.692308 0.000000
9.523810 -2.692308 0.000000
9.714286 -2.692308 0.000000
9.904762 -2.692308 0.000000
10.095238 -2.692308 0.000000
10.285714 -2.692308 0.000000
10.476190 -2.692308 0.000000
10.666667 -2.692308 0.000000
10.857143 -2.692308 0.000000
11.047619 -2.692308 0.000000
11.238095 -2.692308 0.000000
11.428571 -2.692308 0.000000
11.619048 -2.692308 0.000000
11.809524 -2.692308 0.000000
12.000000 -2.692308 0.000000
0.000000 -2.538462 0.000000
0.190476 -2.538462 0.000000
0.380952 -2.538462 0.000000
0.571429 -2.538462 0.000000
0.761905 -2.538462 0.000000
0.952381 -2.538462 0.000000
1.142857 -2.538462 0.000000
1.333333 -2.538462 0.000000
1.523810 -2.538462 0.000000
1.714286 -2.538462 0.000000
1.904762 -2.538462 0.000000
2.095238 -2.538462 0.000000
2.285714 -2.538462 0.000000
2.476190 -2.538462 0.000000
2.666667 -2.538462 0.000000
2.857143 -2.538462 0.000000
3.047619 -2.538462 0.000000
3.238095 -2.538462 0.000000
3.428571 -2.538462 0.000000
3.619048 -2.538462 0.000000
3.809524 -2.538462 0.000000
4.000000 -2.538462 0.000000
4.190476 -2.538462 0.000000
4.380952 -2.538462 0.000000
4.571429 -2.538462 0.000000
4.761905 -2.538462 0.000000
4.952381 -2.538462 0.000000
5.142857 -2.538462 0.000000
5.333333 -2.538462 0.000000
5.523810 -2.538462 0.000000
5.714286 -2.538462 0.000000
5.904762 -2.538462 0.000000
6.095238 -2.538462 0.000000
6.285714 -2.538462 0.000000
6.476190 -2.538462 0.000000
6.666667 -2.538462 0.000000
6.857143 -2.538462 0.000000
7.047619 -2.538462 0.000000
7.238095 -2.538462 0.000000
7.428571 -2.538462 0.000000
7.619048 -2.538462 0.000000
7.809524 -2.538462 0.000000
8.000000 -2.538462 0.000000
8.190476 -2.538462 0.000000
8.380952 -2.538462 0.000000
8.571429 -2.538462 0.000000
8.761905 -2.538462 0.000000
8.952381 -2.538462 0.000000
9.142857 -2.538462 0.000000
9.333333 -2.538462 0.000000
9.523810 -2.538462 0.000000
9.714286 -2.538462 0.000000
9.904762 -2.538462 0.000000
10.095238 -2.538462 0.000000
10.285714 -2.538462 0.000000
10.476190 -2.538462 0.000000
10.666667 -2.538462 0.000000
10.857143 -2.538462 0.000000
11.047619 -2.538462 0.000000
11.238095 -2.538462 0.000000
11.428571 -2.538462 0.000000
11.619048 -2.538462 0.000000
11.809524 -2.538462 0.000000
12.000000 -2.538462 0.000000
0.000000 -2.384615 0.000000
0.190476 -2.384615 0.000000
0.380952 -2.384615 0.000000
0.571429 -2.384615 0.000000
0.761905 -2.384615 0.000000
0.952381 -2.384615 0.000000
1.142857 -2.384615 0.000000
1.333333 -2.384615 0.000000
1.523810 -2.384615 0.000000
1.714286 -2.384615 0.000000
1.904762 -2.384615 0.000000
2.095238 -2.384615 0.000000
2.285714 -2.384615 0.000000
2.476190 -2.384615 0.000000
2.666667 -2.384615 0.000000
2.857143 -2.384615 0.000000
3.047619 -2.384615 0.000000
3.238095 -2.384615 0.000000
3.428571 -2.384615 0.000000
3.619048 -2.384615 0.000000
3.809524 -2.384615 0.000000
4.000000 -2.384615 0.000000
4.190476 -2.384615 0.000000
4.380952 -2.384615 0.000000
4.571429 -2.384615 0.000000
4.761905 -2.384615 0.000000
4.952381 -2.384615 0.000000
5.142857 -2.384615 0.000000
5.333333 -2.384615 0.000000
5.523810 -2.384615 0.000000
5.714286 -2.384615 0.000000
5.904762 -2.384615 0.000000
6.095238 -2.384615 0.000000
6.285714 -2.384615 0.000000
6.476190 -2.384615 0.000000
6.666667 -2.384615 0.000000
6.857143 -2.384615 0.000000
7.047619 -2.384615 0.000000
7.238095 -2.384615 0.000000
7.428571 -2.384615 0.000000
7.619048 -2.384615 0.000000
7.809524 -2.384615 0.000000
8.000000 -2.384615 0.000000
8.190476 -2.384615 0.000000
8.380952 -2.384615 0.000000
8.571429 -2.384615 0.000000
8.761905 -2.384615 0.000000
8.952381 -2.384615 0.000000
9.142857 -2.384615 0.000000
9.333333 -2.384615 0.000000
9.523810 -2.384615 0.000000
9.714286 -2.384615 0.000000
9.904762 -2.384615 0.000000
10.095238 -2.384615 0.000000
10.285714 -2.384615 0.000000
10.476190 -2.384615 0.000000
10.666667 -2.384615 0.000000
10.857143 -2.384615 0.000000
11.047619 -2.384615 0.000000
11.238095 -2.384615 0.000000
11.428571 -2.384615 0.000000
11.619048 -2.384615 0.000000
11.809524 -2.384615 0.000000
12.000000 -2.384615 0.000000
0.000000 -2.230769 0.000000
0.190476 -2.230769 0.000000
0.380952 -2.230769 0.000000
0.571429 -2.230769 0.000000
0.761905 -2.230769 0.000000
0.952381 -2.230769 0.000000
1.142857 -2.230769 0.000000
1.333333 -2.230769 0.000000
1.523810 -2.230769 0.000000
1.714286 -2.230769 0.000000
1.904762 -2.230769 0.000000
2.095238 -2.230769 0.000000
2.285714 -2.230769 0.000000
2.476190 -2.230769 0.000000
2.666667 -2.230769 0.000000
2.857143 -2.230769 0.000000
3.047619 -2.230769 0.000000
3.238095 -2.230769 0.000000
3.428571 -2.230769 0.000000
3.619048 -2.230769 0.000000
3.809524 -2.230769 0.000000
4.000000 -2.230769 0.000000
4.190476 -2.230769 0.000000
4.380952 -2.230769 0.000000
4.571429 -2.230769 0.000000
4.761905 -2.230769 0.000000
4.952381 -2.230769 0.000000
5.142857 -2.230769 0.000000
5.333333 -2.230769 0.000000
5.523810 -2.230769 0.000000
5.714286 -2.230769 0.000000
[...]
POINT_DATA 2560
SCALARS pressure float 1
LOOKUP_TABLE default
0.518704
0.518291
0.517779
0.517155
0.516408
0.515525
0.514494
0.513300
0.511931
0.510377
0.508626
0.506673
0.504516
0.502156
0.499602
0.496872
0.493988
0.490983
0.487898
0.484781
0.481686
0.478675
0.475811
0.473160
0.470786
0.468750
0.467105
0.465897
0.465161
0.464919
0.465179
0.465938
0.467175
0.468860
0.470949
0.473388
0.476118
0.479072
0.482182
0.485380
0.488601
0.491783
0.494872
0.497822
0.500596
0.503164
0.505508
0.507617
0.509491
0.511135
0.512559
0.513781
0.514818
0.515693
0.516426
0.517039
0.517551
0.517981
0.518344
0.518653
0.518917
0.519144
0.519339
0.519506
0.519446
0.519244
0.518994
0.518693
0.518341
0.517938
0.517481
0.516969
0.516399
0.515770
0.515077
0.514319
0.513493
0.512599
0.511636
0.510608
0.509520
0.508382
0.507205
0.506006
0.504804
0.503621
0.502481
0.501412
0.500440
0.499590
0.498888
0.498355
0.498009
0.497862
0.497922
0.498189
0.498658
0.499318
0.500153
0.501142
0.502257
0.503472
0.504756
0.506078
0.507409
0.508720
0.509987
0.511187
0.512305
0.513327
0.514245
0.515056
0.515762
0.516367
0.516879
0.517307
0.517664
0.517962
0.518212
0.518426
0.518614
0.518783
0.518941
0.519091
0.519235
0.519373
0.519504
0.519626
0.520217
0.520233
0.520253
0.520286
0.520344
0.520436
0.520575
0.520770
0.521030
0.521361
0.521768
0.522252
0.522811
0.523440
0.524133
0.524876
0.525658
0.526463
0.527273
0.528070
0.528836
0.529554
0.530207
0.530781
0.531263
0.531644
0.531917
0.532081
0.532136
0.532084
0.531931
0.531685
0.531354
0.530950
0.530484
0.529966
0.529407
0.528818
0.528207
0.527583
0.526953
0.526322
0.525697
0.525080
0.524477
0.523892
0.523328
0.522788
0.522278
0.521802
0.521363
0.520965
0.520613
0.520310
0.520056
0.519855
0.519705
0.519604
0.519549
0.519535
0.519555
0.519603
0.519669
0.519746
0.520969
0.521196
0.521477
0.521835
0.522289
0.522864
0.523583
0.524467
0.525535
0.526804
0.528285
0.529984
0.531898
0.534020
0.536333
0.538812
0.541425
0.544133
0.546888
0.549640
0.552334
0.554912
0.557317
0.559494
0.561394
0.562972
0.564193
0.565030
0.565469
0.565504
0.565139
0.564389
0.563276
0.561833
0.560096
0.558110
0.555919
0.553571
0.551114
0.548593
0.546051
0.543526
0.541053
0.538663
0.536379
0.534222
0.532208
0.530346
0.528646
0.527109
0.525737
0.524530
0.523482
0.522588
0.521841
0.521232
0.520751
0.520386
0.520124
0.519951
0.519852
0.519813
0.519819
0.519854
0.521655
0.522073
0.522591
0.523241
0.524056
0.525069
0.526315
0.527827
0.529635
0.531762
0.534228
0.537040
0.540198
0.543691
0.547493
0.551568
0.555865
0.560323
0.564868
0.569416
0.573880
0.578164
0.582175
0.585820
0.589014
0.591680
0.593756
0.595197
0.595976
0.596081
0.595518
0.594306
0.592478
0.590085
0.587189
0.583862
0.580182
0.576230
0.572088
0.567836
0.563547
0.559291
0.555130
0.551116
0.547293
0.543695
0.540350
0.537274
0.534478
0.531966
0.529736
0.527781
0.526091
0.524653
0.523450
0.522466
0.521680
0.521073
0.520622
0.520305
0.520100
0.519986
0.519940
0.519941
0.522234
0.522810
0.523524
0.524418
0.525532
0.526911
0.528600
0.530641
0.533072
0.535927
0.539227
0.542986
0.547203
0.551863
0.556935
0.562371
0.568105
0.574055
0.580125
0.586205
0.592175
0.597910
0.603284
0.608170
0.612451
0.616022
0.618799
0.620725
0.621770
0.621925
0.621194
0.619597
0.617174
0.613985
0.610114
0.605658
0.600723
0.595420
0.589858
0.584145
0.578383
0.572666
0.567077
0.561688
0.556560
0.551740
0.547263
0.543153
0.539423
0.536077
0.533112
0.530517
0.528277
0.526372
0.524779
0.523473
0.522427
0.521614
0.521004
0.520568
0.520278
0.520104
0.520019
0.519997
0.522669
0.523360
0.524218
0.525288
0.526623
0.528273
0.530292
0.532729
0.535632
0.539037
0.542973
0.547454
0.552482
0.558037
0.564083
0.570564
0.577401
0.584498
0.591739
0.598992
0.606116
0.612960
0.619369
0.625191
0.630278
0.634499
0.637754
0.639988
0.641188
0.641363
0.640521
0.638667
0.635828
0.632065
0.627474
0.622174
0.616297
0.609977
0.603347
0.596534
0.589662
0.582841
0.576172
0.569741
0.563622
0.557871
0.552530
0.547628
0.543180
0.539193
0.535660
0.532569
0.529901
0.527633
0.525737
0.524182
0.522937
0.521967
0.521238
0.520716
0.520365
0.520153
0.520046
0.520014
0.522934
0.523689
0.524626
0.525797
0.527257
0.529066
0.531281
0.533959
0.537150
0.540896
0.545230
0.550167
0.555708
0.561833
0.568502
0.575650
0.583193
0.591022
0.599009
0.607009
0.614863
0.622405
0.629459
0.635849
0.641395
0.645931
0.649346
0.651615
0.652797
0.652960
0.652114
0.650213
0.647228
0.643190
0.638202
0.632406
0.625961
0.619022
0.611739
0.604254
0.596701
0.589201
0.581866
0.574790
0.568053
0.561718
0.555833
0.550428
0.545522
0.541121
0.537221
0.533807
0.530860
0.528355
0.526260
0.524543
0.523169
0.522101
0.521301
0.520730
0.520350
0.520124
0.520015
0.519988
0.523011
0.523775
0.524722
0.525908
0.527392
0.529236
0.531501
0.534246
0.537526
0.541385
0.545855
0.550954
0.556682
0.563019
0.569920
0.577319
0.585127
0.593231
0.601495
0.609770
0.617889
0.625676
0.632945
0.639488
0.645078
0.649489
0.652583
0.654426
0.655281
0.655394
0.654772
0.653208
0.650500
0.646602
0.641617
0.635727
0.629131
0.622010
0.614530
0.606839
0.599075
0.591363
0.583816
0.576529
0.569586
0.563051
0.556972
0.551384
0.546306
0.541745
0.537698
0.534152
0.531089
0.528484
0.526307
0.524524
0.523101
0.521999
0.521179
0.520601
0.520225
0.520011
0.519921
0.519916
0.522896
0.523610
0.524497
0.525612
0.527014
0.528765
0.530930
0.533567
0.536730
0.540464
0.544802
0.549761
0.555339
0.561516
0.568248
0.575468
0.583087
0.590992
0.599049
0.607110
0.615011
0.622577
0.629610
0.635864
0.641015
0.644690
0.646674
0.647237
0.647164
0.647176
0.647271
0.646794
0.645092
0.641933
0.637448
0.631915
0.625608
0.618759
0.611549
0.604132
0.596641
0.589196
0.581903
0.574854
0.568129
0.561788
0.555880
0.550438
0.545482
0.541023
0.537058
0.533578
0.530569
0.528007
0.525867
0.524117
0.522726
0.521656
0.520870
0.520329
0.519991
0.519816
0.519764
0.519797
0.522593
0.523204
0.523962
0.524922
0.526140
0.527678
0.529597
0.531954
0.534803
0.538185
0.542131
0.546655
0.551755
0.557412
0.563584
0.570206
0.577193
0.584439
0.591817
0.599189
0.606404
0.613294
0.619652
0.625164
0.629314
0.631401
0.630978
0.628705
0.626541
0.626334
0.628098
0.630133
0.630712
0.629200
0.625846
0.621163
0.615596
0.609461
0.602975
0.596295
0.589544
0.582828
0.576242
0.569865
0.563768
0.558006
0.552621
0.547646
0.543100
0.538996
0.535336
0.532116
0.529324
0.526945
0.524958
0.523338
0.522058
0.521085
0.520384
0.519920
0.519652
0.519542
0.519550
0.519636
0.522121
0.522579
0.523147
0.523875
0.524818
0.526032
0.527575
0.529501
0.531863
0.534700
0.538029
0.541852
0.546164
0.550959
0.556207
0.561847
0.567799
0.573965
0.580234
0.586485
0.592586
0.598386
0.603665
0.608004
0.610547
0.609954
0.605253
0.597731
0.591539
0.590763
0.595619
0.602449
0.607341
0.608809
0.607378
0.604072
0.599677
0.594669
0.589322
0.583798
0.578210
0.572643
0.567173
0.561863
0.556768
0.551932
0.547392
0.543175
0.539302
0.535786
0.532634
0.529848
0.527424
0.525355
0.523627
0.522226
0.521128
0.520310
0.519742
0.519391
0.519224
0.519201
0.519284
0.519437
0.521507
0.521770
0.522097
0.522532
0.523124
0.523923
0.524984
0.526371
0.528157
0.530384
0.532996
0.535893
0.539069
0.542618
0.546580
0.550896
0.555468
0.560199
0.564996
0.569761
0.574388
0.578751
0.582617
0.585424
0.585828
0.581482
0.570486
0.554931
0.542259
0.540122
0.549418
0.563713
0.575492
0.581627
0.583029
0.581626
0.578793
0.575265
0.571404
0.567390
0.563319
0.559254
0.555243
0.551330
0.547549
0.543933
0.540507
0.537295
0.534315
0.531583
0.529110
0.526907
0.524978
0.523326
0.521948
0.520838
0.519984
0.519370
0.518973
0.518768
0.518723
0.518806
0.518980
0.519209
0.520787
0.520826
0.520875
0.520970
0.521154
0.521475
0.522000
0.522873
0.524327
0.526440
0.528750
0.530553
0.531843
0.533311
0.535406
0.538034
0.540943
0.543970
0.547021
0.550024
0.552908
0.555574
0.557791
0.558857
0.556883
0.548298
0.529904
0.504499
0.483344
0.478604
0.492613
0.516064
0.536820
0.549153
0.554217
0.555157
0.554188
0.552407
0.550296
0.548056
0.545766
0.543464
0.541170
0.538899
0.536668
0.534491
0.532383
0.530360
0.528439
0.526638
0.524974
0.523466
0.522129
0.520975
0.520015
0.519253
0.518688
0.518313
0.518117
0.518079
0.518175
0.518376
0.518650
0.518963
0.520004
0.519802
0.519550
0.519280
0.519027
0.518844
0.518898
0.519718
0.522291
0.526898
0.531225
0.531833
0.528714
0.525289
0.523859
0.524132
0.525110
0.526253
0.527389
0.528463
0.529437
0.530254
0.530711
0.530042
0.525971
0.513850
0.489047
0.454465
0.424538
0.415904
0.433097
0.464884
0.494714
0.513700
0.522782
0.526284
0.527344
0.527467
0.527262
0.526954
0.526605
0.526224
0.525800
0.525321
0.524781
0.524175
0.523507
0.522786
0.522026
0.521247
0.520472
0.519729
0.519042
0.518437
0.517937
0.517557
0.517309
0.517197
0.517218
0.517360
0.517606
0.517932
0.518311
0.518710
0.519205
0.518757
0.518203
0.517562
0.516868
0.516222
0.516141
0.518506
0.526915
0.542353
0.556167
0.555555
0.540499
0.523781
0.514047
0.510307
0.508957
0.508116
0.507282
0.506372
0.505386
0.504318
0.503036
0.500868
0.495530
0.481907
0.454146
0.414189
0.377674
0.364447
0.381681
0.417974
0.454054
0.478297
0.490899
0.496823
0.499895
0.501945
0.503686
0.505352
0.506988
0.508570
0.510058
0.511414
0.512604
0.513608
0.514416
0.515030
0.515462
0.515733
0.515873
0.515917
0.515900
0.515861
0.515834
0.515847
0.515925
0.516082
0.516324
0.516649
0.517046
0.517497
0.517978
0.518462
0.518437
0.517755
0.516910
0.515917
0.514811
0.513832
0.514401
0.521858
0.546461
0.590996
0.630681
0.628905
0.585628
0.537431
0.509114
0.497897
0.493521
0.490656
0.487907
0.485078
0.482198
0.479320
0.476433
0.473130
0.467621
0.455223
0.429466
0.390198
0.351467
0.334043
0.347613
0.382625
0.419764
0.446115
0.460830
0.468645
0.473517
0.477383
0.480985
0.484549
0.488094
0.491565
0.494894
0.498014
0.500871
0.503426
0.505657
0.507559
0.509141
0.510428
0.511452
0.512256
0.512889
0.513397
0.513827
0.514221
0.514614
0.515029
0.515484
0.515983
0.516524
0.517092
0.517670
0.518233
0.517746
0.516855
0.515751
0.514441
0.512983
0.511870
0.514209
0.531726
0.586972
0.686010
0.774284
0.771493
0.677522
0.572649
0.511514
0.488079
0.479788
0.474927
0.470428
0.465858
0.461254
0.456731
0.452410
0.448253
0.443364
0.434382
0.415133
0.382792
0.347141
0.327113
0.334197
0.362337
0.394929
0.419627
0.434595
0.443513
0.449816
0.455261
0.460525
0.465796
0.471059
0.476233
0.481220
0.485930
0.490289
0.494242
0.497758
0.500823
0.503445
0.505648
0.507472
0.508966
0.510185
0.511189
0.512034
0.512773
0.513449
0.514098
0.514743
0.515399
0.516067
0.516740
0.517402
0.518034
0.517174
0.516110
0.514792
0.513224
0.511487
0.510407
0.515228
0.545778
0.640180
0.808496
0.958206
0.954659
0.797505
0.621490
0.519367
0.481096
0.468537
0.461869
0.455893
0.449856
0.443786
0.437817
0.432124
0.426976
0.422531
0.417405
0.406786
0.385554
0.357617
0.337553
0.337462
0.355567
0.379860
0.400076
0.413706
0.422934
0.430221
0.436914
0.443539
0.450221
0.456910
0.463497
0.469860
0.475890
0.481496
0.486612
0.491195
0.495227
0.498714
0.501681
0.504172
0.506240
0.507950
0.509368
0.510559
0.511585
0.512498
0.513340
0.514144
0.514929
0.515701
0.516458
0.517189
0.517875
0.516754
0.515565
0.514092
0.512335
0.510396
0.509342
0.515990
0.556125
0.679299
0.898319
1.092079
1.088109
0.885554
0.657404
0.525146
0.475960
0.460256
0.452251
0.445171
0.438022
0.430793
0.423530
0.416229
0.409185
0.403582
0.400522
0.397632
0.388621
0.371368
0.354435
0.349087
0.357527
0.372870
0.387643
0.399120
0.408072
0.415894
0.423441
0.431048
0.438762
0.446499
0.454124
0.461499
0.468499
0.475023
0.480994
0.486363
0.491108
0.495234
0.498766
0.501749
0.504243
0.506317
0.508041
0.509489
0.510727
0.511815
0.512800
0.513720
0.514598
0.515445
0.516263
0.517042
0.517766
0.516512
0.515252
0.513691
0.511826
0.509756
0.508545
0.515006
0.554922
0.677843
0.896587
1.090081
1.085738
0.882686
0.654043
0.521270
0.471536
0.455252
0.446633
0.438903
0.431051
0.422984
0.414462
0.404900
0.394207
0.384631
0.380402
0.382512
0.384623
0.379346
0.368694
0.361791
0.363706
0.372033
0.382083
0.391372
0.399718
0.407672
0.415649
0.423804
0.432111
0.440452
0.448678
0.456639
0.464203
0.471259
0.477727
0.483554
0.488715
0.493214
0.497077
0.500350
0.503094
0.505382
0.507287
0.508886
0.510250
0.511440
0.512508
0.513495
0.514426
0.515315
0.516165
0.516969
0.517712
0.516462
0.515191
0.513615
0.511729
0.509608
0.508065
0.512336
0.542239
0.635893
0.803372
0.952168
0.947513
0.789034
0.611602
0.507971
0.468092
0.453826
0.445354
0.437466
0.429354
0.420774
0.410942
0.398244
0.381898
0.365557
0.357344
0.362052
0.373646
0.380321
0.378027
0.373139
0.372317
0.376463
0.383234
0.390715
0.398300
0.406024
0.414000
0.422241
0.430666
0.439134
0.447488
0.455575
0.463260
0.470432
0.477009
0.482937
0.488192
0.492777
0.496716
0.500058
0.502862
0.505202
0.507152
0.508788
0.510182
0.511396
0.512483
0.513483
0.514423
0.515317
0.516170
0.516975
0.517717
0.516608
0.515385
0.513867
0.512051
0.509977
0.508124
0.509582
0.526062
0.580107
0.677773
0.764493
0.759917
0.663918
0.556819
0.493283
0.467279
0.456258
0.448511
0.440952
0.433042
0.424314
0.413250
0.396965
0.374033
0.350018
0.337189
0.343615
0.363115
0.380250
0.386263
0.385095
0.384106
0.386311
0.391081
0.397157
0.403875
0.411039
0.418589
0.426455
0.434517
0.442626
0.450627
0.458371
0.465727
0.472591
0.478882
0.484550
0.489571
0.493948
0.497706
0.500891
0.503562
0.505789
0.507644
0.509201
0.510528
0.511686
0.512726
0.513685
0.514590
0.515454
0.516279
0.517059
0.517781
0.516941
0.515822
0.514434
0.512774
0.510859
0.508906
0.508317
0.514410
0.537428
0.580140
0.617749
0.613620
0.567707
0.516610
0.485146
0.470555
0.462592
0.455936
0.449166
0.441932
0.433530
0.421746
0.402634
0.374525
0.344960
0.329383
0.337620
0.362761
0.386961
0.398835
0.400872
0.400566
0.401972
0.405490
0.410393
0.416122
0.422415
0.429143
0.436192
0.443432
0.450718
0.457906
0.464858
0.471457
0.477606
0.483234
0.488295
0.492768
0.496657
0.499987
0.502800
0.505153
0.507108
0.508736
0.510102
0.511270
0.512296
0.513225
0.514092
0.514919
0.515717
0.516486
0.517219
0.517900
0.517442
0.516478
0.515283
0.513857
0.512208
0.510414
0.508967
0.509723
0.516258
0.529538
0.540893
0.537505
0.519352
0.499224
0.485787
0.478072
0.472495
0.467191
0.461627
0.455541
0.448079
0.436660
0.416932
0.387452
0.356919
0.341774
0.351663
0.378877
0.405149
0.418954
0.422365
0.422467
0.423401
0.425964
0.429754
0.434340
0.439480
0.445028
0.450868
0.456876
0.462924
0.468886
0.474646
0.480103
0.485175
0.489803
0.493946
0.497591
0.500743
0.503423
0.505673
0.507541
0.509084
0.510364
0.511440
0.512367
0.513192
0.513955
0.514683
0.515394
0.516095
0.516782
0.517446
0.518070
0.518079
0.517313
0.516363
0.515235
0.513939
0.512503
0.511065
0.510128
0.510655
0.512904
0.514542
0.512119
0.505622
0.498480
0.493011
0.488947
0.485317
0.481596
0.477597
0.473089
0.467234
0.457585
0.440189
0.414081
0.387661
0.375787
0.386307
0.411345
0.434581
0.446556
0.449494
0.449447
0.449886
0.451551
0.454187
0.457476
0.461219
0.465295
0.469603
0.474042
0.478510
0.482908
0.487146
0.491145
0.494842
0.498191
0.501164
0.503751
0.505959
0.507809
0.509337
0.510585
0.511601
0.512436
0.513140
0.513757
0.514325
0.514874
0.515426
0.515990
0.516568
0.517152
0.517730
0.518281
0.518817
0.518279
0.517612
0.516829
0.515946
0.514982
0.513981
0.513055
0.512413
0.512111
0.511668
0.510368
0.508202
0.505867
0.503830
0.502021
0.500218
0.498281
0.496111
0.493516
0.489818
0.483121
0.470461
0.451348
0.432522
0.425313
0.434952
0.454432
0.471300
0.479321
0.480808
0.480281
0.480153
0.480895
0.482310
0.484172
0.486340
0.488730
0.491272
0.493897
0.496538
0.499128
0.501605
0.503918
0.506024
0.507894
0.509513
0.510876
0.511992
0.512882
0.513575
0.514105
0.514510
0.514831
0.515103
0.515361
0.515632
0.515935
0.516282
0.516676
0.517112
0.517577
0.518056
0.518524
0.519610
0.519318
0.518956
0.518545
0.518108
0.517671
0.517261
0.516916
0.516683
0.516584
0.516545
0.516455
0.516304
0.516193
0.516178
0.516225
0.516266
0.516234
0.516045
0.515546
0.514286
0.511063
0.504062
0.493121
0.482699
0.479942
0.487564
0.500306
0.510266
0.514266
0.514307
0.513274
0.512551
0.512343
0.512491
0.512851
0.513345
0.513929
0.514575
0.515250
0.515926
0.516569
0.517153
0.517651
0.518047
0.518327
0.518489
0.518537
0.518481
0.518339
0.518134
0.517893
0.517642
0.517409
0.517218
0.517091
0.517041
0.517079
0.517206
0.517416
0.517699
0.518037
0.518407
0.518787
0.520412
0.520369
0.520316
0.520282
0.520298
0.520397
0.520614
0.520979
0.521521
0.522261
0.523202
0.524332
0.525647
0.527145
0.528810
0.530607
0.532482
0.534369
0.536182
0.537798
0.538955
0.539031
0.537125
0.533235
0.529743
0.530247
0.535690
0.542819
0.547575
0.548817
0.547952
0.546539
0.545229
0.544069
0.542952
0.541809
0.540618
0.539382
0.538112
0.536818
0.535507
0.534183
0.532853
0.531518
0.530185
0.528861
0.527553
0.526273
0.525034
0.523852
0.522743
0.521724
0.520812
0.520021
0.519364
0.518847
0.518475
0.518245
0.518149
0.518173
0.518300
0.518507
0.518768
0.519056
0.521175
0.521370
0.521613
0.521939
0.522388
0.523000
0.523818
0.524879
0.526217
0.527859
0.529821
0.532111
0.534724
0.537644
0.540844
0.544279
0.547888
0.551593
0.555299
0.558895
0.562228
0.565016
0.566890
0.567868
0.568921
0.571395
0.575344
0.579119
0.581076
0.581034
0.579817
0.578145
0.576276
0.574205
0.571887
0.569319
0.566529
0.563564
0.560474
0.557306
0.554105
0.550911
0.547760
0.544683
0.541709
0.538860
0.536158
0.533619
0.531259
0.529092
0.527127
0.525373
0.523835
0.522517
0.521418
0.520534
0.519855
0.519370
0.519062
0.518909
0.518886
0.518967
0.519121
0.519320
0.521854
0.522263
0.522771
0.523420
0.524256
0.525328
0.526683
0.528367
0.530420
0.532875
0.535755
0.539071
0.542822
0.546989
0.551538
0.556417
0.561557
0.566866
0.572240
0.577562
0.582710
0.587543
0.591902
0.595750
0.599326
0.602903
0.606259
0.608689
0.609684
0.609349
0.608099
0.606234
0.603851
0.600958
0.597571
0.593738
0.589529
0.585027
0.580318
0.575483
0.570602
0.565745
0.560977
0.556353
0.551922
0.547722
0.543785
0.540132
0.536782
0.533745
0.531025
0.528623
0.526535
0.524753
0.523265
0.522056
0.521107
0.520396
0.519898
0.519585
0.519427
0.519393
0.519449
0.519565
0.522408
0.522995
0.523723
0.524640
0.525796
0.527246
0.529043
0.531236
0.533873
0.536992
0.540618
0.544767
0.549438
0.554611
0.560249
0.566294
0.572669
0.579272
0.585987
0.592686
0.599240
0.605529
0.611433
0.616856
0.621736
0.625981
0.629359
0.631585
0.632538
0.632329
0.631149
0.629121
0.626303
0.622733
0.618473
0.613608
0.608242
0.602486
0.596455
0.590260
0.584007
0.577794
0.571708
0.565825
0.560210
0.554913
0.549974
0.545421
0.541272
0.537534
0.534207
0.531285
0.528755
0.526601
0.524801
0.523331
0.522164
0.521269
0.520616
0.520171
0.519899
0.519767
0.519738
0.519781
0.522807
0.523524
0.524415
0.525529
0.526920
0.528645
0.530761
0.533322
0.536378
0.539968
0.544123
0.548859
0.554177
0.560056
0.566457
0.573319
0.580558
0.588066
0.595719
0.603376
0.610894
0.618133
0.624955
0.631221
0.636782
0.641464
0.645086
0.647505
0.648684
0.648678
0.647568
0.645417
0.642281
0.638227
0.633343
0.627742
0.621549
0.614896
0.607919
0.600750
0.593516
0.586334
0.579307
0.572528
0.566072
0.559999
0.554354
0.549168
0.544459
0.540231
0.536483
0.533201
0.530367
0.527956
0.525942
0.524291
0.522971
0.521947
0.521182
0.520639
0.520281
0.520072
0.519976
0.519960
0.523025
0.523820
0.524807
0.526037
0.527565
0.529448
0.531743
0.534507
0.537789
0.541632
0.546066
0.551109
0.556761
0.563003
0.569794
0.577073
0.584752
0.592723
0.600857
0.609007
0.617018
0.624734
0.631995
0.638643
0.644508
0.649424
0.653241
0.655857
0.657233
0.657378
0.656325
0.654118
0.650819
0.646508
0.641293
0.635295
0.628654
0.621514
0.614022
0.606324
0.598557
0.590850
0.583318
0.576059
0.569156
0.562673
0.556660
0.551147
0.546152
0.541679
0.537721
0.534262
0.531280
0.528746
0.526626
0.524887
0.523490
0.522398
0.521571
0.520970
0.520558
0.520297
0.520154
0.520093
0.523051
0.523867
0.524880
0.526139
0.527697
0.529611
0.531937
0.534727
0.538032
0.541892
0.546339
0.551388
0.557040
0.563278
0.570063
0.577332
0.585001
0.592965
0.601096
0.609249
0.617269
0.624993
0.632256
0.638892
0.644740
0.649646
0.653481
0.656152
0.657609
0.657835
0.656846
0.654678
0.651393
0.647078
0.641843
0.635813
0.629131
0.621943
0.614399