# vtk DataFile Version 3.0
structured grid
ASCII
DATASET STRUCTURED_GRID
DIMENSIONS 64 40 1
POINTS 2560 float
0.000000 -3.000000 0.000000
0.190476 -3.000000 0.000000
0.380952 -3.000000 0.000000
0.571429 -3.000000 0.000000
0.761905 -3.000000 0.000000
0.952381 -3.000000 0.000000
1.142857 -3.000000 0.000000
1.333333 -3.000000 0.000000
1.523810 -3.000000 0.000000
1.714286 -3.000000 0.000000
1.904762 -3.000000 0.000000
2.095238 -3.000000 0.000000
2.285714 -3.000000 0.000000
2.476190 -3.000000 0.000000
2.666667 -3.000000 0.000000
2.857143 -3.000000 0.000000
3.047619 -3.000000 0.000000
3.238095 -3.000000 0.000000
3.428571 -3.000000 0.000000
3.619048 -3.000000 0.000000
3.809524 -3.000000 0.000000
4.000000 -3.000000 0.000000
4.190476 -3.000000 0.000000
4.380952 -3.000000 0.000000
4.571429 -3.000000 0.000000
4.761905 -3.000000 0.000000
4.952381 -3.000000 0.000000
5.142857 -3.000000 0.000000
5.333333 -3.000000 0.000000
5.523810 -3.000000 0.000000
5.714286 -3.000000 0.000000
5.904762 -3.000000 0.000000
6.095238 -3.000000 0.000000
6.285714 -3.000000 0.000000
6.476190 -3.000000 0.000000
6.666667 -3.000000 0.000000
6.857143 -3.000000 0.000000
7.047619 -3.000000 0.000000
7.238095 -3.000000 0.000000
7.428571 -3.000000 0.000000
7.619048 -3.000000 0.000000
7.809524 -3.000000 0.000000
8.000000 -3.000000 0.000000
8.190476 -3.000000 0.000000
8.380952 -3.000000 0.000000
8.571429 -3.000000 0.000000
8.761905 -3.000000 0.000000
8.952381 -3.000000 0.000000
9.142857 -3.000000 0.000000
9.333333 -3.000000 0.000000
9.523810 -3.000000 0.000000
9.714286 -3.000000 0.000000
9.904762 -3.000000 0.000000
10.095238 -3.000000 0.000000
10.285714 -3.000000 0.000000
10.476190 -3.000000 0.000000
10.666667 -3.000000 0.000000
10.857143 -3.000000 0.000000
11.047619 -3.000000 0.000000
11.238095 -3.000000 0.000000
11.428571 -3.000000 0.000000
11.619048 -3.000000 0.000000
11.809524 -3.000000 0.000000
12.000000 -3.000000 0.000000
0.000000 -2.846154 0.000000
0.190476 -2.846154 0.000000
0.380952 -2.846154 0.000000
0.571429 -2.846154 0.000000
0.761905 -2.846154 0.000000
0.952381 -2.846154 0.000000
1.142857 -2.846154 0.000000
1.333333 -2.846154 0.000000
1.523810 -2.846154 0.000000
1.714286 -2.846154 0.000000
1.904762 -2.846154 0.000000
2.095238 -2.846154 0.000000
2.285714 -2.846154 0.000000
2.476190 -2.846154 0.000000
2.666667 -2.846154 0.000000
2.857143 -2.846154 0.000000
3.047619 -2.846154 0.000000
3.238095 -2.846154 0.000000
3.428571 -2.846154 0.000000
3.619048 -2.846154 0.000000
3.809524 -2.846154 0.000000
4.000000 -2.846154 0.000000
4.190476 -2.846154 0.000000
4.380952 -2.846154 0.000000
4.571429 -2.846154 0.000000
4.761905 -2.846154 0.000000
4.952381 -2.846154 0.000000
5.142857 -2.846154 0.000000
5.333333 -2.846154 0.000000
5.523810 -2.846154 0.000000
5.714286 -2.846154 0.000000
5.904762 -2.846154 0.000000
6.095238 -2.846154 0.000000
6.285714 -2.846154 0.000000
6.476190 -2.846154 0.000000
6.666667 -2.846154 0.000000
6.857143 -2.846154 0.000000
7.047619 -2.846154 0.000000
7.238095 -2.846154 0.000000
7.428571 -2.846154 0.000000
7.619048 -2.846154 0.000000
7.809524 -2.846154 0.000000
8.000000 -2.846154 0.000000
8.190476 -2.846154 0.000000
8.380952 -2.846154 0.000000
8.571429 -2.846154 0.000000
8.761905 -2.846154 0.000000
8.952381 -2.846154 0.000000
9.142857 -2.846154 0.000000
9.333333 -2.846154 0.000000
9.523810 -2.846154 0.000000
9.714286 -2.846154 0.000000
9.904762 -2.846154 0.000000
10.095238 -2.846154 0.000000
10.285714 -2.846154 0.000000
10.476190 -2.846154 0.000000
10.666667 -2.846154 0.000000
10.857143 -2.846154 0.000000
11.047619 -2.846154 0.000000
11.238095 -2.846154 0.000000
11.428571 -2.846154 0.000000
11.619048 -2.846154 0.000000
11.809524 -2.846154 0.000000
12.000000 -2.846154 0.000000
0.000000 -2.692308 0.000000
0.190476 -2.692308 0.000000
0.380952 -2.692308 0.000000
0.571429 -2.692308 0.000000
0.761905 -2.692308 0.000000
0.952381 -2.692308 0.000000
1.142857 -2.692308 0.000000
1.333333 -2.692308 0.000000
1.523810 -2.692308 0.000000
1.714286 -2.692308 0.000000
1.904762 -2.692308 0.000000
2.095238 -2.692308 0.000000
2.285714 -2.692308 0.000000
2.476190 -2.692308 0.000000
2.666667 -2.692308 0.000000
2.857143 -2.692308 0.000000
3.047619 -2.692308 0.000000
3.238095 -2.692308 0.000000
3.428571 -2.692308 0.000000
3.619048 -2.692308 0.000000
3.809524 -2.692308 0.000000
4.000000 -2.692308 0.000000
4.190476 -2.692308 0.000000
4.380952 -2.692308 0.000000
4.571429 -2.692308 0.000000
4.761905 -2.692308 0.000000
4.952381 -2.692308 0.000000
5.142857 -2.692308 0.000000
5.333333 -2.692308 0.000000
5.523810 -2.692308 0.000000
5.714286 -2.692308 0.000000
5.904762 -2.692308 0.000000
6.095238 -2.692308 0.000000
6.285714 -2.692308 0.000000
6.476190 -2.692308 0.000000
6.666667 -2.692308 0.000000
6.857143 -2.692308 0.000000
7.047619 -2.692308 0.000000
7.238095 -2.692308 0.000000
7.428571 -2.692308 0.000000
7.619048 -2.692308 0.000000
7.809524 -2.692308 0.000000
8.000000 -2.692308 0.000000
8.190476 -2.692308 0.000000
8.380952 -2.692308 0.000000
8.571429 -2.692308 0.000000
8.761905 -2.692308 0.000000
8.952381 -2.692308 0.000000
9.142857 -2.692308 0.000000
9.333333 -2.692308 0.000000
9.523810 -2.692308 0.000000
9.714286 -2.692308 0.000000
9.904762 -2.692308 0.000000
10.095238 -2.692308 0.000000
10.285714 -2.692308 0.000000
10.476190 -2.692308 0.000000
10.666667 -2.692308 0.000000
10.857143 -2.692308 0.000000
11.047619 -2.692308 0.000000
11.238095 -2.692308 0.000000
11.428571 -2.692308 0.000000
11.619048 -2.692308 0.000000
11.809524 -2.692308 0.000000
12.000000 -2.692308 0.000000
0.000000 -2.538462 0.000000
0.190476 -2.538462 0.000000
0.380952 -2.538462 0.000000
0.571429 -2.538462 0.000000
0.761905 -2.538462 0.000000
0.952381 -2.538462 0.000000
1.142857 -2.538462 0.000000
1.333333 -2.538462 0.000000
1.523810 -2.538462 0.000000
1.714286 -2.538462 0.000000
1.904762 -2.538462 0.000000
2.095238 -2.538462 0.000000
2.285714 -2.538462 0.000000
2.476190 -2.538462 0.000000
2.666667 -2.538462 0.000000
2.857143 -2.538462 0.000000
3.047619 -2.538462 0.000000
3.238095 -2.538462 0.000000
3.428571 -2.538462 0.000000
3.619048 -2.538462 0.000000
3.809524 -2.538462 0.000000
4.000000 -2.538462 0.000000
4.190476 -2.538462 0.000000
4.380952 -2.538462 0.000000
4.571429 -2.538462 0.000000
4.761905 -2.538462 0.000000
4.952381 -2.538462 0.000000
5.142857 -2.538462 0.000000
5.333333 -2.538462 0.000000
5.523810 -2.538462 0.000000
5.714286 -2.538462 0.000000
5.904762 -2.538462 0.000000
6.095238 -2.538462 0.000000
6.285714 -2.538462 0.000000
6.476190 -2.538462 0.000000
6.666667 -2.538462 0.000000
6.857143 -2.538462 0.000000
7.047619 -2.538462 0.000000
7.238095 -2.538462 0.000000
7.428571 -2.538462 0.000000
7.619048 -2.538462 0.000000
7.809524 -2.538462 0.000000
8.000000 -2.538462 0.000000
8.190476 -2.538462 0.000000
8.380952 -2.538462 0.000000
8.571429 -2.538462 0.000000
8.761905 -2.538462 0.000000
8.952381 -2.538462 0.000000
9.142857 -2.538462 0.000000
9.333333 -2.538462 0.000000
9.523810 -2.538462 0.000000
9.714286 -2.538462 0.000000
9.904762 -2.538462 0.000000
10.095238 -2.538462 0.000000
10.285714 -2.538462 0.000000
10.476190 -2.538462 0.000000
10.666667 -2.538462 0.000000
10.857143 -2.538462 0.000000
11.047619 -2.538462 0.000000
11.238095 -2.538462 0.000000
11.428571 -2.538462 0.000000
11.619048 -2.538462 0.000000
11.809524 -2.538462 0.000000
12.000000 -2.538462 0.000000
0.000000 -2.384615 0.000000
0.190476 -2.384615 0.000000
0.380952 -2.384615 0.000000
0.571429 -2.384615 0.000000
0.761905 -2.384615 0.000000
0.952381 -2.384615 0.000000
1.142857 -2.384615 0.000000
1.333333 -2.384615 0.000000
1.523810 -2.384615 0.000000
1.714286 -2.384615 0.000000
1.904762 -2.384615 0.000000
2.095238 -2.384615 0.000000
2.285714 -2.384615 0.000000
2.476190 -2.384615 0.000000
2.666667 -2.384615 0.000000
2.857143 -2.384615 0.000000
3.047619 -2.384615 0.000000
3.238095 -2.384615 0.000000
3.428571 -2.384615 0.000000
3.619048 -2.384615 0.000000
3.809524 -2.384615 0.000000
4.000000 -2.384615 0.000000
4.190476 -2.384615 0.000000
4.380952 -2.384615 0.000000
4.571429 -2.384615 0.000000
4.761905 -2.384615 0.000000
4.952381 -2.384615 0.000000
5.142857 -2.384615 0.000000
5.333333 -2.384615 0.000000
5.523810 -2.384615 0.000000
5.714286 -2.384615 0.000000
5.904762 -2.384615 0.000000
6.095238 -2.384615 0.000000
6.285714 -2.384615 0.000000
6.476190 -2.384615 0.000000
6.666667 -2.384615 0.000000
6.857143 -2.384615 0.000000
7.047619 -2.384615 0.000000
7.238095 -2.384615 0.000000
7.428571 -2.384615 0.000000
7.619048 -2.384615 0.000000
7.809524 -2.384615 0.000000
8.000000 -2.384615 0.000000
8.190476 -2.384615 0.000000
8.380952 -2.384615 0.000000
8.571429 -2.384615 0.000000
8.761905 -2.384615 0.000000
8.952381 -2.384615 0.000000
9.142857 -2.384615 0.000000
9.333333 -2.384615 0.000000
9.523810 -2.384615 0.000000
9.714286 -2.384615 0.000000
9.904762 -2.384615 0.000000
10.095238 -2.384615 0.000000
10.285714 -2.384615 0.000000
10.476190 -2.384615 0.000000
10.666667 -2.384615 0.000000
10.857143 -2.384615 0.000000
11.047619 -2.384615 0.000000
11.238095 -2.384615 0.000000
11.428571 -2.384615 0.000000
11.619048 -2.384615 0.000000
11.809524 -2.384615 0.000000
12.000000 -2.384615 0.000000
0.000000 -2.230769 0.000000
0.190476 -2.230769 0.000000
0.380952 -2.230769 0.000000
0.571429 -2.230769 0.000000
0.761905 -2.230769 0.000000
0.952381 -2.230769 0.000000
1.142857 -2.230769 0.000000
1.333333 -2.230769 0.000000
1.523810 -2.230769 0.000000
1.714286 -2.230769 0.000000
1.904762 -2.230769 0.000000
2.095238 -2.230769 0.000000
2.285714 -2.230769 0.000000
2.476190 -2.230769 0.000000
2.666667 -2.230769 0.000000
2.857143 -2.230769 0.000000
3.047619 -2.230769 0.000000
3.238095 -2.230769 0.000000
3.428571 -2.230769 0.000000
3.619048 -2.230769 0.000000
3.809524 -2.230769 0.000000
4.000000 -2.230769 0.000000
4.190476 -2.230769 0.000000
4.380952 -2.230769 0.000000
4.571429 -2.230769 0.000000
4.761905 -2.230769 0.000000
4.952381 -2.230769 0.000000
5.142857 -2.230769 0.000000
5.333333 -2.230769 0.000000
5.523810 -2.230769 0.000000
5.714286 -2.230769 0.000000
[...]
POINT_DATA 2560
SCALARS pressure float 1
LOOKUP_TABLE default
0.522402
0.523143
0.524088
0.525275
0.526743
0.528532
0.530682
0.533228
0.536203
0.539636
0.543546
0.547941
0.552819
0.558164
0.563943
0.570109
0.576594
0.583317
0.590178
0.597064
0.603850
0.610402
0.616585
0.622261
0.627301
0.631583
0.635004
0.637476
0.638938
0.639350
0.638701
0.637008
0.634312
0.630683
0.626208
0.620999
0.615177
0.608875
0.602233
0.595388
0.588472
0.581611
0.574915
0.568482
0.562391
0.556705
0.551469
0.546711
0.542444
0.538667
0.535367
0.532521
0.530099
0.528065
0.526381
0.525006
0.523897
0.523017
0.522325
0.521788
0.521374
0.521054
0.520805
0.520607
0.521846
0.522432
0.523190
0.524152
0.525352
0.526824
0.528599
0.530708
0.533176
0.536026
0.539272
0.542918
0.546962
0.551388
0.556167
0.561259
0.566608
0.572144
0.577787
0.583443
0.589011
0.594381
0.599444
0.604090
0.608211
0.611713
0.614509
0.616532
0.617729
0.618069
0.617544
0.616166
0.613969
0.611006
0.607351
0.603091
0.598324
0.593159
0.587708
0.582082
0.576391
0.570737
0.565212
0.559897
0.554858
0.550150
0.545811
0.541866
0.538328
0.535196
0.532463
0.530110
0.528113
0.526444
0.525069
0.523954
0.523063
0.522364
0.521821
0.521405
0.521088
0.520844
0.520654
0.520499
0.521143
0.521532
0.522052
0.522728
0.523585
0.524650
0.525946
0.527494
0.529312
0.531413
0.533805
0.536491
0.539463
0.542709
0.546206
0.549920
0.553811
0.557828
0.561910
0.565993
0.570002
0.573862
0.577494
0.580822
0.583772
0.586277
0.588278
0.589725
0.590584
0.590832
0.590463
0.589484
0.587920
0.585809
0.583200
0.580153
0.576736
0.573025
0.569096
0.565032
0.560910
0.556803
0.552779
0.548899
0.545212
0.541759
0.538571
0.535669
0.533066
0.530763
0.528758
0.527037
0.525585
0.524381
0.523401
0.522619
0.522006
0.521536
0.521182
0.520920
0.520725
0.520578
0.520460
0.520360
0.520331
0.520492
0.520736
0.521080
0.521541
0.522135
0.522876
0.523773
0.524836
0.526069
0.527472
0.529042
0.530773
0.532650
0.534658
0.536775
0.538976
0.541230
0.543505
0.545763
0.547968
0.550078
0.552054
0.553858
0.555453
0.556804
0.557883
0.558665
0.559132
0.559270
0.559076
0.558556
0.557722
0.556595
0.555198
0.553559
0.551708
0.549682
0.547521
0.545266
0.542962
0.540650
0.538367
0.536150
0.534030
0.532033
0.530181
0.528490
0.526971
0.525630
0.524467
0.523480
0.522659
0.521995
0.521472
0.521074
0.520783
0.520579
0.520443
0.520358
0.520305
0.520269
0.520237
0.520199
0.519452
0.519367
0.519314
0.519300
0.519335
0.519422
0.519564
0.519762
0.520012
0.520310
0.520649
0.521019
0.521411
0.521815
0.522220
0.522616
0.522996
0.523352
0.523680
0.523974
0.524235
0.524462
0.524656
0.524819
0.524954
0.525064
0.525151
0.525215
0.525255
0.525269
0.525255
0.525217
0.525161
0.525091
0.525004
0.524891
0.524737
0.524534
0.524279
0.523976
0.523630
0.523250
0.522844
0.522419
0.521987
0.521558
0.521144
0.520756
0.520404
0.520098
0.519843
0.519644
0.519504
0.519420
0.519390
0.519406
0.519461
0.519544
0.519645
0.519750
0.519851
0.519935
0.519995
0.520025
0.518553
0.518219
0.517863
0.517487
0.517089
0.516664
0.516202
0.515694
0.515124
0.514479
0.513742
0.512900
0.511941
0.510855
0.509640
0.508297
0.506836
0.505272
0.503630
0.501938
0.500233
0.498555
0.496945
0.495449
0.494109
0.492963
0.492045
0.491379
0.490979
0.490851
0.490996
0.491419
0.492127
0.493120
0.494372
0.495829
0.497420
0.499081
0.500767
0.502442
0.504080
0.505654
0.507144
0.508531
0.509805
0.510961
0.512000
0.512928
0.513755
0.514493
0.515155
0.515753
0.516299
0.516803
0.517271
0.517708
0.518114
0.518490
0.518830
0.519131
0.519388
0.519596
0.519751
0.519850
0.517684
0.517108
0.516463
0.515741
0.514932
0.514019
0.512984
0.511806
0.510459
0.508919
0.507164
0.505172
0.502930
0.500430
0.497676
0.494680
0.491469
0.488080
0.484564
0.480983
0.477407
0.473916
0.470591
0.467515
0.464770
0.462427
0.460550
0.459181
0.458344
0.458045
0.458286
0.459078
0.460452
0.462432
0.464989
0.468010
0.471338
0.474830
0.478392
0.481962
0.485489
0.488922
0.492214
0.495323
0.498217
0.500877
0.503295
0.505472
0.507417
0.509146
0.510677
0.512031
0.513229
0.514292
0.515235
0.516073
0.516817
0.517472
0.518044
0.518535
0.518944
0.519271
0.519517
0.519683
0.516888
0.516095
0.515190
0.514158
0.512982
0.511637
0.510094
0.508323
0.506289
0.503960
0.501303
0.498295
0.494918
0.491166
0.487048
0.482586
0.477821
0.472811
0.467631
0.462370
0.457131
0.452027
0.447176
0.442695
0.438698
0.435290
0.432552
0.430541
0.429277
0.428752
0.428949
0.429893
0.431685
0.434459
0.438239
0.442831
0.447903
0.453170
0.458478
0.463763
0.468978
0.474063
0.478954
0.483589
0.487919
0.491911
0.495550
0.498831
0.501765
0.504369
0.506669
0.508693
0.510470
0.512029
0.513396
0.514593
0.515639
0.516548
0.517330
0.517993
0.518541
0.518978
0.519308
0.519534
0.516208
0.515232
0.514111
0.512824
0.511347
0.509650
0.507697
0.505447
0.502859
0.499892
0.496509
0.492679
0.488385
0.483619
0.478395
0.472743
0.466716
0.460387
0.453851
0.447221
0.440625
0.434205
0.428107
0.422478
0.417460
0.413176
0.409725
0.407160
0.405475
0.404608
0.404483
0.405120
0.406787
0.409941
0.414835
0.421149
0.428157
0.435246
0.442174
0.448931
0.455541
0.461973
0.468163
0.474036
0.479529
0.484600
0.489225
0.493399
0.497132
0.500444
0.503365
0.505931
0.508178
0.510141
0.511855
0.513348
0.514646
0.515767
0.516726
0.517536
0.518203
0.518734
0.519135
0.519413
0.515679
0.514565
0.513282
0.511809
0.510117
0.508170
0.505926
0.503340
0.500365
0.496954
0.493063
0.488660
0.483721
0.478243
0.472239
0.465745
0.458822
0.451556
0.444054
0.436447
0.428882
0.421521
0.414530
0.408078
0.402325
0.397409
0.393429
0.390414
0.388295
0.386881
0.385915
0.385349
0.385788
0.388485
0.394356
0.402903
0.412512
0.421804
0.430352
0.438335
0.445985
0.453382
0.460491
0.467237
0.473550
0.479380
0.484698
0.489497
0.493788
0.497596
0.500953
0.503900
0.506479
0.508731
0.510695
0.512405
0.513888
0.515169
0.516264
0.517187
0.517947
0.518552
0.519009
0.519326
0.515325
0.514124
0.512745
0.511166
0.509354
0.507274
0.504879
0.502122
0.498952
0.495317
0.491171
0.486476
0.481207
0.475360
0.468949
0.462013
0.454617
0.446851
0.438831
0.430698
0.422608
0.414735
0.407258
0.400356
0.394199
0.388928
0.384628
0.381280
0.378691
0.376404
0.373755
0.370458
0.367727
0.368467
0.375098
0.386931
0.400597
0.413079
0.423538
0.432568
0.440881
0.448808
0.456401
0.463603
0.470341
0.476561
0.482234
0.487352
0.491928
0.495988
0.499569
0.502714
0.505468
0.507876
0.509978
0.511812
0.513406
0.514786
0.515967
0.516964
0.517787
0.518442
0.518937
0.519279
0.515162
0.513931
0.512525
0.510923
0.509096
0.507006
0.504610
0.501859
0.498705
0.495097
0.490976
0.486291
0.481014
0.475151
0.468725
0.461772
0.454352
0.446555
0.438496
0.430317
0.422178
0.414252
0.406723
0.399770
0.393562
0.388232
0.383838
0.380283
0.377175
0.373608
0.368175
0.360081
0.351492
0.348129
0.355104
0.371656
0.391562
0.408882
0.421902
0.431920
0.440525
0.448526
0.456139
0.463349
0.470091
0.476310
0.481978
0.487088
0.491656
0.495709
0.499286
0.502432
0.505194
0.507615
0.509738
0.511597
0.513222
0.514634
0.515849
0.516879
0.517730
0.518410
0.518922
0.519275
0.515194
0.513988
0.512626
0.511088
0.509349
0.507376
0.505130
0.502582
0.499710
0.496472
0.492743
0.488369
0.483323
0.477706
0.471604
0.465041
0.458046
0.450686
0.443069
0.435328
0.427615
0.420098
0.412951
0.406347
0.400442
0.395354
0.391098
0.387477
0.383837
0.378653
0.369448
0.354652
0.337694
0.328108
0.334736
0.357043
0.385186
0.409049
0.425389
0.436390
0.444934
0.452552
0.459720
0.466490
0.472813
0.478637
0.483938
0.488713
0.492979
0.496766
0.500113
0.503064
0.505665
0.507957
0.509980
0.511766
0.513339
0.514717
0.515912
0.516932
0.517779
0.518456
0.518966
0.519313
0.515414
0.514288
0.513034
0.511641
0.510089
0.508354
0.506425
0.504365
0.502323
0.500305
0.497784
0.494008
0.488945
0.483293
0.477536
0.471648
0.465477
0.458996
0.452273
0.445426
0.438590
0.431916
0.425561
0.419682
0.414417
0.409855
0.405966
0.402447
0.398369
0.391543
0.378330
0.356313
0.330231
0.313557
0.319028
0.346675
0.383252
0.414109
0.433950
0.445748
0.453846
0.460642
0.466925
0.472834
0.478339
0.483398
0.487992
0.492124
0.495812
0.499088
0.501991
0.504562
0.506843
0.508872
0.510683
0.512301
0.513744
0.515025
0.516149
0.517117
0.517928
0.518577
0.519065
0.519392
0.515803
0.514805
0.513719
0.512543
0.511265
0.509887
0.508510
0.507599
0.508076
0.510162
0.511485
0.508559
0.501348
0.493275
0.486673
0.481295
0.476213
0.470984
0.465554
0.460001
0.454437
0.448988
0.443787
0.438964
0.434632
0.430851
0.427547
0.424328
0.420060
0.412068
0.395868
0.368418
0.335379
0.312968
0.316736
0.347437
0.389721
0.425536
0.447692
0.459592
0.466754
0.472308
0.477317
0.481994
0.486332
0.490302
0.493890
0.497108
0.499976
0.502527
0.504798
0.506827
0.508650
0.510298
0.511797
0.513164
0.514409
0.515536
0.516543
0.517422
0.518166
0.518765
0.519213
0.519506
0.516333
0.515503
0.514634
0.513733
0.512804
0.511914
0.511535
0.513502
0.521368
0.536084
0.548947
0.547084
0.530438
0.511811
0.499882
0.493683
0.489643
0.485931
0.482110
0.478173
0.474199
0.470281
0.466522
0.463021
0.459859
0.457067
0.454537
0.451834
0.447757
0.439521
0.422475
0.393441
0.358209
0.333527
0.335699
0.365993
0.408785
0.445006
0.466692
0.477345
0.482926
0.486845
0.490261
0.493413
0.496308
0.498928
0.501273
0.503360
0.505215
0.506870
0.508360
0.509717
0.510970
0.512142
0.513248
0.514296
0.515288
0.516215
0.517066
0.517826
0.518479
0.519008
0.519400
0.519649
0.516970
0.516336
0.515719
0.515134
0.514613
0.514376
0.515821
0.524262
0.549945
0.595658
0.636579
0.635952
0.593656
0.546359
0.518928
0.508577
0.505025
0.502942
0.500943
0.498846
0.496682
0.494508
0.492391
0.490394
0.488568
0.486913
0.485303
0.483311
0.479833
0.472396
0.456949
0.430758
0.398946
0.376425
0.377879
0.404470
0.441927
0.472909
0.490467
0.498126
0.501414
0.503366
0.504964
0.506393
0.507658
0.508753
0.509691
0.510499
0.511208
0.511850
0.512455
0.513051
0.513657
0.514286
0.514944
0.515627
0.516323
0.517017
0.517684
0.518302
0.518845
0.519289
0.519616
0.519812
0.517672
0.517251
0.516904
0.516659
0.516584
0.517176
0.521536
0.541385
0.599302
0.701428
0.793200
0.793962
0.703400
0.602092
0.544830
0.525511
0.521491
0.520997
0.520918
0.520772
0.520528
0.520205
0.519829
0.519428
0.519019
0.518577
0.517973
0.516832
0.514260
0.508389
0.496301
0.476179
0.452105
0.435538
0.437585
0.458404
0.486017
0.507062
0.517352
0.520556
0.521028
0.520834
0.520518
0.520142
0.519694
0.519181
0.518635
0.518093
0.517591
0.517163
0.516834
0.516625
0.516546
0.516599
0.516779
0.517070
0.517451
0.517891
0.518359
0.518821
0.519242
0.519593
0.519846
0.519985
0.518394
0.518190
0.518116
0.518212
0.518590
0.520097
0.527987
0.562102
0.660631
0.833825
0.989293
0.991628
0.839937
0.669823
0.574287
0.543117
0.538000
0.539003
0.540830
0.542630
0.544300
0.545821
0.547180
0.548368
0.549370
0.550141
0.550558
0.550321
0.548792
0.544773
0.536603
0.523579
0.508843
0.499978
0.503495
0.517710
0.533266
0.542182
0.544037
0.542529
0.540295
0.538091
0.535949
0.533816
0.531683
0.529582
0.527564
0.525681
0.523977
0.522486
0.521230
0.520220
0.519458
0.518938
0.518640
0.518538
0.518599
0.518783
0.519048
0.519349
0.519646
0.519899
0.520078
0.520157
0.519092
0.519095
0.519279
0.519697
0.520494
0.522774
0.533380
0.578125
0.706648
0.932006
1.133240
1.137263
0.942053
0.721802
0.598460
0.558924
0.553371
0.555857
0.559478
0.563101
0.566565
0.569812
0.572795
0.575469
0.577791
0.579698
0.581079
0.581712
0.581193
0.578894
0.574179
0.567290
0.560656
0.558415
0.562516
0.569270
0.572457
0.570192
0.565497
0.561139
0.557460
0.553917
0.550278
0.546579
0.542901
0.539327
0.535938
0.532806
0.529982
0.527499
0.525376
0.523618
0.522218
0.521159
0.520412
0.519940
0.519698
0.519638
0.519708
0.519855
0.520031
0.520190
0.520296
0.520319
0.519722
0.519910
0.520323
0.521022
0.522161
0.524854
0.535951
0.581273
0.710461
0.936547
1.138466
1.143501
0.949620
0.730644
0.608644
0.570535
0.566484
0.570527
0.575737
0.580952
0.585982
0.590735
0.595134
0.599104
0.602576
0.605472
0.607695
0.609089
0.609436
0.608507
0.606317
0.603597
0.601970
0.602577
0.603517
0.600360
0.591776
0.582173
0.576045
0.573159
0.570713
0.567141
0.562597
0.557655
0.552671
0.547830
0.543255
0.539039
0.535242
0.531898
0.529023
0.526614
0.524659
0.523129
0.521989
0.521190
0.520681
0.520404
0.520299
0.520308
0.520374
0.520448
0.520488
0.520461
0.520248
0.520586
0.521185
0.522108
0.523493
0.526211
0.535546
0.571361
0.671856
0.847264
1.005174
1.010476
0.862257
0.695828
0.604227
0.577250
0.576548
0.582129
0.588627
0.595109
0.601382
0.607334
0.612858
0.617858
0.622243
0.625925
0.628815
0.630812
0.631830
0.631887
0.631302
0.630762
0.630598
0.628884
0.620903
0.604300
0.585172
0.573472
0.572460
0.576575
0.578810
0.576874
0.572163
0.566387
0.560411
0.554581
0.549075
0.544007
0.539443
0.535421
0.531952
0.529029
0.526633
0.524730
0.523275
0.522215
0.521489
0.521035
0.520786
0.520680
0.520654
0.520657
0.520642
0.520573
0.520638
0.521084
0.521814
0.522892
0.524427
0.526959
0.533630
0.556203
0.617284
0.723033
0.818930
0.824425
0.739192
0.643706
0.592724
0.580109
0.583149
0.589979
0.597373
0.604719
0.611841
0.618612
0.624907
0.630613
0.635624
0.639845
0.643193
0.645606
0.647086
0.647794
0.648118
0.648291
0.646833
0.638610
0.617512
0.586090
0.558691
0.549088
0.557659
0.572515
0.581843
0.582758
0.578484
0.572281
0.565668
0.559181
0.553051
0.547411
0.542334
0.537856
0.533988
0.530719
0.528024
0.525866
0.524194
0.522952
0.522074
0.521493
0.521140
0.520949
0.520856
0.520805
0.520748
0.520650
0.520870
0.521376
0.522174
0.523330
0.524926
0.527239
0.531725
0.543750
0.573608
0.624129
0.670537
0.676121
0.640762
0.601079
0.581891
0.580349
0.586077
0.593622
0.601448
0.609203
0.616731
0.623894
0.630562
0.636610
0.641926
0.646412
0.649989
0.652620
0.654361
0.655444
0.656211
0.656297
0.652387
0.636700
0.603238
0.560061
0.527816
0.522128
0.540399
0.565403
0.581339
0.584988
0.581330
0.575023
0.568136
0.561355
0.554945
0.549048
0.543741
0.539059
0.535010
0.531583
0.528750
0.526471
0.524694
0.523359
0.522402
0.521752
0.521341
0.521100
0.520966
0.520882
0.520802
0.520686
0.520932
0.521446
0.522247
0.523398
0.524967
0.527085
0.530293
0.536488
0.549286
0.569689
0.589040
0.594497
0.586006
0.576338
0.574120
0.578303
0.585202
0.592841
0.600607
0.608293
0.615757
0.622865
0.629484
0.635492
0.640777
0.645240
0.648809
0.651459
0.653274
0.654507
0.655427
0.655220
0.649435
0.629045
0.588951
0.540703
0.507762
0.505792
0.529960
0.560205
0.579163
0.583975
0.580659
0.574476
0.567675
0.560975
0.554645
0.548822
0.543583
0.538960
0.534961
0.531574
0.528770
0.526512
0.524746
0.523416
0.522456
0.521799
0.521377
0.521125
0.520979
0.520886
0.520798
0.520680
0.520823
0.521294
0.522032
0.523097
0.524547
0.526453
0.528993
0.532700
0.538564
0.546864
0.555275
0.560338
0.562019
0.563719
0.567711
0.573662
0.580519
0.587680
0.594901
0.602042
0.608978
0.615583
0.621736
0.627323
0.632239
0.636393
0.639720
0.642202
0.643924
0.645129
0.646028
0.645700
0.639670
0.619371
0.580607
0.535201
0.505636
0.505973
0.530284
0.558882
0.575991
0.579888
0.576518
0.570668
0.564310
0.558065
0.552169
0.546749
0.541871
0.537568
0.533846
0.530694
0.528088
0.525989
0.524352
0.523121
0.522236
0.521633
0.521250
0.521023
0.520896
0.520816
0.520739
0.520631
0.520554
0.520932
0.521545
0.522448
0.523689
0.525318
0.527400
0.530068
0.533542
0.537888
0.542623
0.547022
0.551060
0.555406
0.560491
0.566195
0.572242
0.578443
0.584673
0.590827
0.596799
0.602484
0.607778
0.612585
0.616814
0.620390
0.623255
0.625396
0.626887
0.627936
0.628724
0.628523
0.623784
0.607748
0.577010
0.540924
0.517740
0.518594
0.537795
0.559117
0.570845
0.572558
0.569035
0.563796
0.558233
0.552796
0.547668
0.542954
0.538712
0.534970
0.531737
0.529003
0.526748
0.524941
0.523539
0.522496
0.521758
0.521268
0.520968
0.520804
0.520722
0.520676
0.520627
0.520543
0.520145
0.520387
0.520823
0.521496
0.522448
0.523716
0.525333
0.527339
0.529779
0.532668
0.535925
0.539422
0.543134
0.547140
0.551472
0.556067
0.560832
0.565683
0.570539
0.575323
0.579954
0.584354
0.588446
0.592156
0.595419
0.598177
0.600388
0.602043
0.603199
0.604016
0.604661
0.604710
0.601905
0.591824
0.571955
0.548087
0.532455
0.532577
0.544176
0.556353
0.562134
0.561829
0.558506
0.554230
0.549799
0.545483
0.541412
0.537668
0.534298
0.531327
0.528764
0.526606
0.524837
0.523434
0.522363
0.521585
0.521056
0.520728
0.520552
0.520481
0.520469
0.520477
0.520470
0.520422
0.519624
0.519698
0.519914
0.520306
0.520904
0.521736
0.522821
0.524176
0.525810
0.527722
0.529896
0.532301
0.534914
0.537720
0.540692
0.543790
0.546965
0.550168
0.553351
0.556464
0.559457
0.562285
0.564900
0.567262
0.569334
0.571083
0.572487
0.573543
0.574294
0.574857
0.575368
0.575663
0.574574
0.569699
0.559462
0.546649
0.537833
0.537175
0.542262
0.547343
0.549123
0.547989
0.545471
0.542523
0.539507
0.536565
0.533781
0.531213
0.528899
0.526863
0.525114
0.523654
0.522477
0.521566
0.520900
0.520448
0.520178
0.520051
0.520031
0.520077
0.520155
0.520231
0.520277
0.520274
0.519029
0.518912
0.518880
0.518955
0.519158
0.519503
0.519999
0.520650
0.521454
0.522401
0.523479
0.524667
0.525944
0.527288
0.528674
0.530077
0.531471
0.532834
0.534146
0.535387
0.536544
0.537605
0.538561
0.539405
0.540132
0.540741
0.541232
0.541617
0.541929
0.542247
0.542674
0.543184
0.543279
0.541852
0.538048
0.532869
0.529090
0.528570
0.530335
0.532056
0.532499
0.531861
0.530711
0.529376
0.527979
0.526582
0.525237
0.523982
0.522847
0.521853
0.521012
0.520333
0.519817
0.519458
0.519245
0.519160
0.519181
0.519283
0.519438
0.519619
0.519799
0.519953
0.520061
0.520108
0.518401
0.518083
0.517791
0.517535
0.517323
0.517159
0.517040
0.516959
0.516904
0.516859
0.516805
0.516724
0.516594
0.516397
0.516120
0.515751
0.515285
0.514726
0.514081
0.513364
0.512598
0.511807
0.511020
0.510268
0.509581
0.508990
0.508521
0.508201
0.508067
0.508173
0.508584
0.509318
0.510195
0.510753
0.510557
0.509812
0.509413
0.510029
0.511396
0.512798
0.513854
0.514601
0.515162
0.515593
0.515913
0.516140
0.516300
0.516417
0.516512
0.516606
0.516714
0.516851
0.517027
0.517245
0.517506
0.517805
0.518132
0.518474
0.518815
0.519138
0.519425
0.519662
0.519835
0.519935
0.517784
0.517269
0.516720
0.516138
0.515519
0.514854
0.514130
0.513329
0.512431
0.511412
0.510249
0.508920
0.507407
0.505696
0.503784
0.501675
0.499383
0.496935
0.494366
0.491725
0.489065
0.486450
0.483945
0.481618
0.479535
0.477758
0.476340
0.475329
0.474767
0.474696
0.475155
0.476160
0.477640
0.479399
0.481201
0.482985
0.484927
0.487195
0.489734
0.492361
0.494946
0.497442
0.499813
0.502022
0.504044
0.505873
0.507514
0.508979
0.510284
0.511447
0.512488
0.513427
0.514283
0.515069
0.515797
0.516474
0.517102
0.517679
0.518202
0.518665
0.519058
0.519376
0.519613
0.519765
0.517221
0.516525
0.515741
0.514859
0.513864
0.512737
0.511454
0.509989
0.508313
0.506395
0.504207
0.501727
0.498938
0.495831
0.492413
0.488699
0.484724
0.480534
0.476192
0.471774
0.467367
0.463068
0.458976
0.455194
0.451820
0.448945
0.446651
0.445002
0.444052
0.443840
0.444388
0.445699
0.447727
0.450363
0.453455
0.456879
0.460584
0.464547
0.468714
0.472998
0.477304
0.481543
0.485630
0.489496
0.493097
0.496406
0.499415
0.502124
0.504545
0.506695
0.508598
0.510278
0.511761
0.513071
0.514229
0.515254
0.516158
0.516952
0.517642
0.518232
0.518722
0.519114
0.519409
0.519608
0.516753
0.515906
0.514922
0.513784
0.512468
0.510946
0.509185
0.507150
0.504806
0.502117
0.499051
0.495584
0.491701
0.487400
0.482691
0.477605
0.472190
0.466511
0.460653
0.454717
0.448817
0.443077
0.437628
0.432601
0.428121
0.424308
0.421262
0.419069
0.417791
0.417470
0.418121
0.419733
0.422261
0.425616
0.429674
0.434303
0.439383
0.444813
0.450493
0.456313
0.462161
0.467921
0.473489
0.478781
0.483737
0.488316
0.492497
0.496272
0.499650
0.502647
0.505288
0.507603
0.509623
0.511381
0.512907
0.514227
0.515366
0.516343
0.517173
0.517868
0.518439
0.518892
0.519235
0.519475
0.516416
0.515454
0.514320
0.512988
0.511426
0.509599
0.507469
0.504993
0.502131
0.498844
0.495097
0.490867
0.486138
0.480912
0.475208
0.469063
0.462538
0.455713
0.448688
0.441584
0.434535
0.427688
0.421196
0.415211
0.409882
0.405346
0.401724
0.399112
0.397584
0.397184
0.397925
0.399789
0.402724
0.406643
0.411428
0.416941
0.423040
0.429583
0.436432